ITEM: TIMESTEP
0
ITEM: NUMBER OF ATOMS
16
ITEM: BOX BOUNDS xy xz yz pp pp pp
0.0000000000000000e+00 6.5999999999999996e+00 0.0000000000000000e+00
0.0000000000000000e+00 6.5999999999999996e+00 0.0000000000000000e+00
0.0000000000000000e+00 6.5999999999999996e+00 0.0000000000000000e+00
ITEM: ATOMS id type x y z fx fy fz
1 1 0 0 0 -5.77828 -0.6214 0.127696
2 1 0 0 3.3 -3.7218 0.984884 -4.87194
3 1 0 3.3 0 -5.84865 -7.59853 6.38489
4 1 0 3.3 3.3 -2.68394 -0.83636 -1.07577
5 1 3.3 0 0 -8.6383 -6.41761 5.36812
6 1 3.3 0 3.3 4.33396 -1.7746 8.82311
7 1 3.3 3.3 0 -8.8288 5.9371 -0.230919
8 1 3.3 3.3 3.3 -8.00449 -0.711914 -3.35863
9 1 1.65 1.65 1.65 2.30873 -2.87165 4.75132
10 1 1.65 1.65 4.95 -4.002 4.48493 2.99907
11 1 1.65 4.95 1.65 2.98182 2.76512 -8.17815
12 1 1.65 4.95 4.95 9.632 -9.34902 -3.29698
13 1 4.95 1.65 1.65 8.03512 1.88198 -5.05815
14 1 4.95 1.65 4.95 6.72031 5.28286 -8.78173
15 1 4.95 4.95 1.65 5.79896 1.41369 5.86119
16 1 4.95 4.95 4.95 7.69536 7.43051 0.536884
ITEM: TIMESTEP
1000
ITEM: NUMBER OF ATOMS
16
ITEM: BOX BOUNDS xy xz yz pp pp pp
0.0000000000000000e+00 6.5999999999999996e+00 0.0000000000000000e+00
0.0000000000000000e+00 6.5999999999999996e+00 0.0000000000000000e+00
0.0000000000000000e+00 6.5999999999999996e+00 0.0000000000000000e+00
ITEM: ATOMS id type x y z fx fy fz
1 1 0.141639 6.40797 0.172508 0.164994 5.07034 1.11583
2 1 0.230676 6.38518 3.24888 -8.47156 -3.29491 -2.12431
3 1 6.35149 3.20185 6.48774 8.70302 -7.34442 -1.68923
4 1 6.29869 3.42247 3.41645 4.78888 9.58759 -5.87883
5 1 3.61141 0.110424 0.0304775 -9.41994 6.04767 -5.6075
6 1 3.11086 6.61129 3.49121 9.69567 -6.31303 -0.319138
7 1 3.40008 3.41536 0.0499552 -8.7127 -6.3611 -3.80077
8 1 3.15615 3.59407 3.20767 -7.88043 -4.32799 8.58263
9 1 1.74156 1.69744 1.42802 5.42539 -7.91502 1.03012
10 1 1.84125 1.76778 4.94848 2.9892 9.28651 0.378979
11 1 1.31152 4.71045 1.65577 2.63255 4.46735 5.56681
12 1 1.69333 4.68842 5.36583 -9.41892 -7.16637 2.10781
13 1 4.99968 1.92386 1.81391 1.26728 4.22095 -0.822617
14 1 5.38921 1.46059 4.61215 -5.7763 5.62364 -7.19039
15 1 4.55751 5.08401 1.56727 9.00823 3.35023 10.0311
16 1 4.96496 4.91882 4.70366 5.00463 -4.93146 -1.3805
ITEM: TIMESTEP
2000
ITEM: NUMBER OF ATOMS
16
ITEM: BOX BOUNDS xy xz yz pp pp pp
0.0000000000000000e+00 6.5999999999999996e+00 0.0000000000000000e+00
0.0000000000000000e+00 6.5999999999999996e+00 0.0000000000000000e+00
0.0000000000000000e+00 6.5999999999999996e+00 0.0000000000000000e+00
ITEM: ATOMS id type x y z fx fy fz
1 1 6.69343 6.59249 0.144383 -2.80612 -2.34321 -2.3298
2 1 0.134051 6.63219 3.43883 -0.235984 4.08858 -1.05359
3 1 0.199722 3.55686 0.287547 1.59085 -6.70621 -9.8088
4 1 0.374475 3.05354 3.53465 0.333484 -2.47703 1.34396
5 1 3.30135 0.0306877 6.21977 0.882203 1.99858 -7.9622
6 1 3.37167 0.0469297 3.17543 -0.0231448 0.16741 4.17056
7 1 3.01828 3.35159 0.0450032 -7.44787 -7.1692 -8.61926
8 1 3.19064 3.20048 2.87263 -1.24851 0.185721 9.01497
9 1 1.49037 1.4203 1.68654 5.12725 0.519771 1.68781
10 1 1.91652 1.67635 5.27951 -8.18806 -4.50505 -8.04688
11 1 1.72395 4.94479 1.65301 5.6267 8.7704 7.8161
12 1 1.58964 5.04084 4.97933 0.333564 -9.24174 5.3027
13 1 4.56004 1.83454 1.72162 4.38636 1.5126 -7.85876
14 1 4.95549 1.72668 4.94435 -0.743342 9.26734 4.44705
15 1 4.81557 5.01521 1.5362 -5.60136 7.05542 1.95356
16 1 4.8648 4.67653 4.68119 8.01397 -1.12339 9.94258
ITEM: TIMESTEP
3000
ITEM: NUMBER OF ATOMS
16
ITEM: BOX BOUNDS xy xz yz pp pp pp
0.0000000000000000e+00 6.5999999999999996e+00 0.0000000000000000e+00
0.0000000000000000e+00 6.5999999999999996e+00 0.0000000000000000e+00
0.0000000000000000e+00 6.5999999999999996e+00 0.0000000000000000e+00
ITEM: ATOMS id type x y z fx fy fz
1 1 6.55202 0.0122086 0.092997 -5.25275 -1.96811 7.79131
2 1 0.116262 0.238913 3.58899 -9.27994 -2.6191 -6.45464
3 1 6.35039 3.33062 0.0577905 7.07706 -2.67543 -2.27772
4 1 0.0801287 3.40385 3.04256 -2.66267 -2.08225 8.49472
5 1 3.38906 0.125836 6.32517 -2.19996 -2.45154 -4.0124
6 1 3.13068 6.4954 3.31324 7.90238 -1.38983 2.28015
7 1 3.18847 3.28763 0.257266 3.18801 -2.5573 -2.70823
8 1 3.43621 3.23922 3.19149 0.316665 5.09717 -1.43755
9 1 1.73965 1.33274 1.51456 -1.11053 2.97864 -0.380129
10 1 1.78504 1.70759 4.80489 8.77972 8.08303 -1.79367
11 1 1.60645 5.2397 1.51732 -2.42656 -6.07877 -3.0418
12 1 1.47529 4.70646 5.22961 -4.80293 -1.51632 2.28907
13 1 5.3334 1.32262 1.72546 -5.30097 5.59707 0.40325
14 1 4.97279 1.94326 4.94844 1.78006 -6.03356 2.94147
15 1 4.97882 4.794 1.64734 -6.03557 11.5573 -7.68212
16 1 4.66537 5.01996 4.94286 10.028 -3.94105 5.58829
ITEM: TIMESTEP
4000
ITEM: NUMBER OF ATOMS
16
ITEM: BOX BOUNDS xy xz yz pp pp pp
0.0000000000000000e+00 6.5999999999999996e+00 0.0000000000000000e+00
0.0000000000000000e+00 6.5999999999999996e+00 0.0000000000000000e+00
0.0000000000000000e+00 6.5999999999999996e+00 0.0000000000000000e+00
ITEM: ATOMS id type x y z fx fy fz
1 1 0.0415382 6.36224 0.154064 0.58171 0.72318 -10.5038
2 1 6.58861 6.64298 3.10514 0.637047 -3.18221 1.34799
3 1 0.167518 3.07131 0.167398 -2.92916 3.08032 6.17626
4 1 0.159497 3.446 3.48353 2.95431 -2.00658 2.208
5 1 3.36899 0.0777683 0.108202 -0.602105 1.90296 7.15623
6 1 3.1958 0.198957 3.14086 3.10494 -1.59217 8.58261
7 1 3.3062 3.13219 0.115403 0.277326 -4.27862 -7.24641
8 1 3.27246 3.36987 3.41993 7.80744 0.768579 1.80215
9 1 1.38622 1.60824 1.38959 7.7051 6.5295 -3.83807
10 1 1.78157 1.48938 4.7311 -1.31775 4.34476 0.0486385
11 1 1.40665 4.94231 1.9698 2.39163 1.67703 0.681419
12 1 1.69168 4.85412 5.13312 -2.0533 5.42774 -3.9527
13 1 4.88768 1.62611 1.28615 -7.27511 -8.68214 -4.79958
14 1 5.4101 1.93278 4.66734 -0.121047 -1.11588 -7.43427
15 1 4.62049 4.72501 1.90491 -6.93588 2.94322 0.753763
16 1 4.91499 5.32074 4.82346 -4.22514 -6.53968 9.01776
ITEM: TIMESTEP
5000
ITEM: NUMBER OF ATOMS
16
ITEM: BOX BOUNDS xy xz yz pp pp pp
0.0000000000000000e+00 6.5999999999999996e+00 0.0000000000000000e+00
0.0000000000000000e+00 6.5999999999999996e+00 0.0000000000000000e+00
0.0000000000000000e+00 6.5999999999999996e+00 0.0000000000000000e+00
ITEM: ATOMS id type x y z fx fy fz
1 1 0.181081 0.126213 -0.020465 -7.67126 -9.53021 2.44307
2 1 6.1653 0.137046 3.3981 2.5597 6.99105 -5.4434
3 1 0.297083 3.09943 0.0697302 -1.92325 -3.43407 -7.14965
4 1 6.31278 3.2382 3.11789 -0.439766 -6.24975 11.3373
5 1 3.54228 0.221293 0.0718389 1.64155 3.8789 4.19125
6 1 3.26838 6.35541 3.22979 8.79134 1.56233 -1.22541
7 1 3.47637 3.13318 6.61987 -7.32031 -5.26168 8.16129
8 1 3.08237 3.45154 3.27189 -3.00939 -5.90371 -2.21886
9 1 1.81686 1.26329 1.81836 6.73697 -4.18926 5.68351
10 1 1.69194 1.54792 5.26188 -4.15057 11.1003 -7.62071
11 1 1.43621 4.74198 1.44094 8.98055 1.72555 -4.16811
12 1 1.67109 5.098 4.82664 -7.66047 7.21583 -3.79952
13 1 5.17154 1.83941 1.38714 7.00379 -8.42654 0.621092
14 1 5.12842 1.8274 4.96337 -4.65876 2.73617 1.53051
15 1 4.9666 5.06009 1.58054 -1.93217 8.64744 -4.94286
16 1 4.59168 5.05959 5.16247 3.05204 -0.862363 2.6005
ITEM: TIMESTEP
6000
ITEM: NUMBER OF ATOMS
16
ITEM: BOX BOUNDS xy xz yz pp pp pp
0.0000000000000000e+00 6.5999999999999996e+00 0.0000000000000000e+00
0.0000000000000000e+00 6.5999999999999996e+00 0.0000000000000000e+00
0.0000000000000000e+00 6.5999999999999996e+00 0.0000000000000000e+00
ITEM: ATOMS id type x y z fx fy fz
1 1 6.57613 0.188528 0.349012 5.65171 -5.47923 -6.7987
2 1 6.42473 6.45957 3.01029 -2.66675 1.77404 -8.16056
3 1 6.4817 3.11747 0.0462595 3.95432 -5.10042 2.63843
4 1 0.230227 3.58913 3.25366 -6.88357 -11.1013 -4.09758
5 1 3.37628 6.49181 6.56293 2.00191 2.34264 -3.13402
6 1 3.18596 6.4708 3.16377 6.90908 -2.33201 -0.324029
7 1 3.32613 3.04194 6.32307 6.08962 0.224366 10.3537
8 1 3.4533 3.22268 3.48736 -1.26798 9.96399 -4.26218
9 1 1.79649 1.61073 1.83906 3.92891 1.40117 8.98942
10 1 1.59817 1.60688 4.94283 -10.8975 6.12463 7.30783
11 1 1.6347 5.04332 1.92587 -2.52796 0.0181056 -5.10066
12 1 1.44258 5.03602 5.03241 -2.08486 -3.41558 -6.047
13 1 4.73355 2.06463 1.62556 2.6422 -9.35647 1.95633
14 1 5.0438 1.42961 4.60923 -4.1732 8.65633 -0.333133
15 1 4.88153 5.01363 1.62917 -6.50456 7.8912 5.06233
16 1 5.21472 5.01324 4.99951 5.82867 -1.61148 1.94982
ITEM: TIMESTEP
7000
ITEM: NUMBER OF ATOMS
16
ITEM: BOX BOUNDS xy xz yz pp pp pp
0.0000000000000000e+00 6.5999999999999996e+00 0.0000000000000000e+00
0.0000000000000000e+00 6.5999999999999996e+00 0.0000000000000000e+00
0.0000000000000000e+00 6.5999999999999996e+00 0.0000000000000000e+00
ITEM: ATOMS id type x y z fx fy fz
1 1 6.58559 0.00631282 0.0856526 2.74614 -7.11496 4.41994
2 1 0.326904 0.0561485 3.17692 4.49647 -7.76503 -0.749898
3 1 6.58959 3.22738 6.4931 -3.28021 1.97198 -0.242069
4 1 0.0345803 2.97015 3.29387 0.592195 -1.10189 0.784024
5 1 3.19874 6.28411 6.38633 -3.4767 9.68382 1.06607
6 1 3.5099 0.136347 3.16612 4.13603 0.572799 1.75531
7 1 3.22037 3.39895 0.181281 -8.85632 3.34749 -5.55488
8 1 3.21098 3.43876 3.49381 7.17217 8.54175 -10.5576
9 1 1.60422 1.67063 1.84814 3.70103 7.54166 5.12623
10 1 1.8903 1.2929 5.08026 2.29757 8.66585 7.74143
11 1 1.38648 4.93083 1.43116 -0.622377 1.9143 2.22928
12 1 1.64528 4.6971 5.08272 6.14841 -2.19919 -7.88954
13 1 4.84097 1.87868 1.59021 -11.0613 0.741949 -2.5163
14 1 5.03848 1.92371 4.83606 7.39104 -8.18766 5.45229
15 1 4.84293 5.2459 1.67803 -11.5982 -11.5853 -9.05595
16 1 4.87467 5.04209 4.97635 0.214117 -5.02758 7.99165
ITEM: TIMESTEP
8000
ITEM: NUMBER OF ATOMS
16
ITEM: BOX BOUNDS xy xz yz pp pp pp
0.0000000000000000e+00 6.5999999999999996e+00 0.0000000000000000e+00
0.0000000000000000e+00 6.5999999999999996e+00 0.0000000000000000e+00
0.0000000000000000e+00 6.5999999999999996e+00 0.0000000000000000e+00
ITEM: ATOMS id type x y z fx fy fz
1 1 0.19168 -0.0116527 6.32278 -0.889725 1.87821 4.05137
2 1 6.56638 0.242515 3.34306 3.75858 0.369632 -7.77893
3 1 0.230838 3.11473 0.0582221 1.93949 6.0455 -9.56785
4 1 6.61328 3.0951 3.11736 -0.951774 -5.16658 7.44312
5 1 3.18341 0.028597 0.17817 6.4398 3.86807 4.32382
6 1 3.04363 6.42239 3.56876 -0.780134 -3.34627 -3.43249
7 1 3.35072 3.1781 6.56422 -3.95354 -4.25048 1.63902
8 1 3.15497 3.44874 2.97125 5.97057 1.36551 6.1621
9 1 1.93927 1.74766 1.90142 -6.20866 8.01258 -1.32986
10 1 1.87859 1.85354 5.29522 -6.54847 4.95478 -2.48087
11 1 1.34098 5.13744 1.89161 -3.49662 -0.481743 -1.30316
12 1 1.80178 5.01261 4.96981 5.73688 -4.01856 6.39379
13 1 4.83182 1.83829 1.78498 6.78757 -5.10202 -11.1768
14 1 4.73805 1.48506 4.94507 -2.74806 0.359846 8.86496
15 1 4.65122 5.06103 1.30181 -4.94757 -2.24603 6.46461
16 1 5.28338 4.54587 4.58625 -0.108347 -2.24245 -8.27286
ITEM: TIMESTEP
9000
ITEM: NUMBER OF ATOMS
16
ITEM: BOX BOUNDS xy xz yz pp pp pp
0.0000000000000000e+00 6.5999999999999996e+00 0.0000000000000000e+00
0.0000000000000000e+00 6.5999999999999996e+00 0.0000000000000000e+00
0.0000000000000000e+00 6.5999999999999996e+00 0.0000000000000000e+00
ITEM: ATOMS id type x y z fx fy fz
1 1 0.271526 6.45837 6.47294 2.12912 6.17071 -2.53312
2 1 6.15906 6.36032 3.34194 7.06324 -6.04667 4.84622
3 1 6.63824 2.8381 0.0759773 1.02926 0.802095 -2.79438
4 1 6.5039 3.1653 3.36952 6.42442 -2.73067 -11.0958
5 1 3.59681 0.0031762 0.0687591 -8.64398 -5.85751 6.98899
6 1 3.29043 6.47495 3.50573 4.38876 -2.00464 1.33554
7 1 3.24442 3.28915 6.52509 -0.146481 -1.38707 -0.122016
8 1 3.27494 3.80689 3.26632 0.0595283 7.24117 1.90528
9 1 1.84338 1.66176 1.6104 -4.00982 3.57299 4.77049
10 1 1.83655 1.73203 4.70753 -9.96637 -4.12175 -0.92894
11 1 1.6289 5.44693 1.60574 8.05981 5.69524 1.33309
12 1 1.54718 4.62056 4.88912 -2.404 -1.14607 1.66629
13 1 4.88465 1.806 1.69175 -4.49398 -1.29477 2.35003
14 1 4.95872 1.4685 4.88592 1.56951 -3.18131 -7.62119
15 1 4.97113 5.18513 1.56917 0.0610171 4.89169 2.85586
16 1 4.75014 5.08284 5.21411 -1.12003 -0.603419 -2.95639
ITEM: TIMESTEP
10000
ITEM: NUMBER OF ATOMS
16
ITEM: BOX BOUNDS xy xz yz pp pp pp
0.0000000000000000e+00 6.5999999999999996e+00 0.0000000000000000e+00
0.0000000000000000e+00 6.5999999999999996e+00 0.0000000000000000e+00
0.0000000000000000e+00 6.5999999999999996e+00 0.0000000000000000e+00
ITEM: ATOMS id type x y z fx fy fz
1 1 6.57393 0.0404246 6.50649 2.77167 0.295206 7.01029
2 1 0.0809711 0.0692606 3.33544 -0.385098 -5.61307 -8.40141
3 1 0.136522 3.41042 6.62215 -3.66669 4.21291 0.9737
4 1 6.50917 3.39189 3.24263 3.731 -6.61083 1.39991
5 1 3.40979 6.35559 0.0472773 2.90736 9.07093 -3.86435
6 1 3.06156 0.229817 3.36184 -1.36072 6.05069 1.81812
7 1 3.47947 3.11215 6.50785 7.06123 5.45659 3.91772
8 1 3.25765 3.48748 3.38396 -0.0829959 4.05951 -7.38912
9 1 1.47277 1.83919 2.03555 -6.4714 2.3779 -5.74336
10 1 1.78898 1.46891 5.13015 3.80108 -2.86858 7.37366
11 1 1.61476 4.59138 1.47075 0.698407 0.0277855 -3.41222
12 1 1.52372 4.85866 4.6972 0.357521 -3.76007 -0.124528
13 1 5.18349 1.72676 1.68335 -5.51883 0.993497 -3.46457
14 1 4.97163 1.70635 4.67007 -1.76101 2.93719 2.03817
15 1 4.77656 4.98472 1.47303 6.16959 -9.13008 9.04842
16 1 4.95905 4.92699 5.23225 -8.25111 -7.49956 -1.18044
ITEM: TIMESTEP
11000
ITEM: NUMBER OF ATOMS
16
ITEM: BOX BOUNDS xy xz yz pp pp pp
0.0000000000000000e+00 6.5999999999999996e+00 0.0000000000000000e+00
0.0000000000000000e+00 6.5999999999999996e+00 0.0000000000000000e+00
0.0000000000000000e+00 6.5999999999999996e+00 0.0000000000000000e+00
ITEM: ATOMS id type x y z fx fy fz
1 1 0.253763 0.0820246 6.34208 -7.84563 6.70897 -4.25985
2 1 6.59872 6.57747 3.18639 8.74623 8.61977 -1.13642
3 1 6.14428 3.31262 0.104226 -3.86991 -6.04236 -3.65202
4 1 0.0411893 3.35961 3.2182 -3.02888 -7.0682 8.49927
5 1 3.22995 0.206172 0.295141 0.00605881 6.33451 0.434798
6 1 3.35287 6.57668 3.47404 -6.34581 1.47238 -9.34803
7 1 3.66101 3.29492 0.111135 -4.11817 -7.99724 -0.931828
8 1 3.2947 3.28888 3.07202 0.511122 8.60092 7.94879
9 1 1.40774 1.48679 1.60118 -1.36405 -5.77476 -9.35199
10 1 1.30579 2.07493 4.92227 10.3072 2.83735 4.89759
11 1 1.72702 4.93735 1.94959 -5.17757 -1.70051 -5.0478
12 1 1.87156 4.90984 5.10152 5.58833 4.92972 -5.87319
13 1 5.1605 1.4547 1.51359 -5.43347 -6.53113 9.92181
14 1 4.76215 1.66105 4.83278 4.34299 -2.71308 3.05846
15 1 4.79301 4.83657 1.61081 4.28286 3.97617 8.94734
16 1 5.19574 4.74038 4.86502 3.39869 -5.6525 -4.10692
ITEM: TIMESTEP
12000
ITEM: NUMBER OF ATOMS
16
ITEM: BOX BOUNDS xy xz yz pp pp pp
0.0000000000000000e+00 6.5999999999999996e+00 0.0000000000000000e+00
0.0000000000000000e+00 6.5999999999999996e+00 0.0000000000000000e+00
0.0000000000000000e+00 6.5999999999999996e+00 0.0000000000000000e+00
ITEM: ATOMS id type x y z fx fy fz
1 1 6.48848 0.303246 6.52217 -7.62983 -1.97713 -5.81888
2 1 -0.0212137 6.67659 3.15784 -7.8745 5.7116 3.8084
3 1 -0.00673124 3.415 6.1706 -1.53718 -8.06888 2.97476
4 1 0.0601557 3.23738 3.02119 -0.528726 10.4421 -4.25203
5 1 3.5348 6.33651 0.225044 2.52766 -3.9611 -3.32692
6 1 3.26245 0.0414152 3.5965 6.78272 0.769525 1.81722
7 1 3.37885 3.21558 0.0500888 -7.94105 5.41128 -1.52312
8 1 3.26382 3.39867 3.44427 3.74445 0.901909 -7.14903
9 1 1.43412 1.83826 1.44965 -1.2921 5.87461 8.41068
10 1 1.81108 1.74435 5.27501 2.7673 -5.83839 4.95642
11 1 1.79348 5.1095 1.71942 0.995648 3.0213 4.93392
12 1 1.55692 4.96461 5.09103 -5.40484 -6.50457 -3.60316
13 1 4.66682 1.2439 1.95469 7.26889 -1.69208 2.46277
14 1 4.96791 1.56436 5.14983 -4.567 -4.89629 -3.40773
15 1 4.93586 4.64331 1.48932 5.358 -6.27407 5.82508
16 1 5.07319 5.06732 4.48334 7.33055 7.08016 -6.10839
ITEM: TIMESTEP
13000
ITEM: NUMBER OF ATOMS
16
ITEM: BOX BOUNDS xy xz yz pp pp pp
0.0000000000000000e+00 6.5999999999999996e+00 0.0000000000000000e+00
0.0000000000000000e+00 6.5999999999999996e+00 0.0000000000000000e+00
0.0000000000000000e+00 6.5999999999999996e+00 0.0000000000000000e+00
ITEM: ATOMS id type x y z fx fy fz
1 1 0.184363 0.158436 0.0965382 -0.310626 -2.64936 7.36971
2 1 0.095112 6.40613 3.40029 -4.68104 2.56169 3.34261
3 1 -0.0662502 3.34079 6.63038 0.938886 4.55296 5.17519
4 1 0.150558 3.15695 2.92563 -7.65762 -3.37591 3.1466
5 1 3.08634 6.57206 0.224176 -5.38652 -3.06981 -1.59517
6 1 3.2851 6.56721 3.44854 -3.08021 0.888193 -3.4515
7 1 3.4378 3.22172 6.30942 -2.02109 0.0274287 7.30135
8 1 3.34756 3.79253 2.94892 -1.95336 0.14721 -5.67547
9 1 1.53154 1.61956 1.91856 11.1385 1.2896 -4.30036
10 1 1.80639 2.04668 5.18165 -8.60376 -7.7066 -4.43499
11 1 1.41454 4.98138 1.81789 9.38425 8.33274 -5.90052
12 1 1.46773 4.75203 4.92505 -2.84846 7.33275 -1.8451
13 1 4.95234 1.28355 1.713 -8.03861 4.31369 -4.15142
14 1 5.09692 1.69652 4.65153 4.59268 -2.62691 8.75013
15 1 5.03261 4.86726 1.40382 8.66579 -2.95052 -0.215528
16 1 4.77737 4.93722 5.20461 9.86123 -7.06717 -3.51554
ITEM: TIMESTEP
14000
ITEM: NUMBER OF ATOMS
16
ITEM: BOX BOUNDS xy xz yz pp pp pp
0.0000000000000000e+00 6.5999999999999996e+00 0.0000000000000000e+00
0.0000000000000000e+00 6.5999999999999996e+00 0.0000000000000000e+00
0.0000000000000000e+00 6.5999999999999996e+00 0.0000000000000000e+00
ITEM: ATOMS id type x y z fx fy fz
1 1 6.55921 0.124166 6.50729 9.30532 4.45821 9.28209
2 1 6.43747 0.177102 3.48743 -3.95712 -4.30837 -5.02453
3 1 -0.00334157 3.45711 0.172755 -2.19108 -0.0793664 -5.97534
4 1 0.104566 3.20014 3.55533 2.91048 -0.502327 2.41307
5 1 3.4189 6.58293 6.20344 8.22405 4.76319 6.41822
6 1 3.17177 0.0644039 3.36782 -0.809045 -2.54067 -7.77477
7 1 3.09762 3.39284 6.39539 0.976108 -7.14955 5.64783
8 1 3.39821 3.29629 3.13582 7.8145 -10.0014 -5.3043
9 1 1.66675 1.30877 1.6694 -2.62277 -1.65976 -3.56175
10 1 1.32777 1.5905 5.13057 -4.99861 -7.37989 1.47977
11 1 1.87712 4.83024 1.48239 0.271834 -2.13578 9.7264
12 1 1.64262 4.63196 4.81096 -3.76032 9.62815 -2.61574
13 1 5.0646 1.59537 1.68883 -7.22244 2.34693 7.20515
14 1 4.95847 1.89457 4.93997 7.54144 5.13876 0.957225
15 1 4.99039 4.8122 2.00979 -6.56596 2.57046 -6.95265
16 1 5.08788 5.24141 4.84282 -4.9164 6.85144 -5.92068
ITEM: TIMESTEP
15000
ITEM: NUMBER OF ATOMS
16
ITEM: BOX BOUNDS xy xz yz pp pp pp
0.0000000000000000e+00 6.5999999999999996e+00 0.0000000000000000e+00
0.0000000000000000e+00 6.5999999999999996e+00 0.0000000000000000e+00
0.0000000000000000e+00 6.5999999999999996e+00 0.0000000000000000e+00
ITEM: ATOMS id type x y z fx fy fz
1 1 0.147741 0.10822 6.57625 1.95492 -4.7269 5.74676
2 1 6.40803 6.47916 3.48477 4.71535 2.02359 -5.735
3 1 6.53353 3.11237 0.066003 3.52768 -4.16496 8.84126
4 1 6.46568 3.32096 3.35444 -3.25607 -1.8904 3.27215
5 1 3.34328 6.49067 0.0806376 -5.70184 3.31537 4.14477
6 1 3.22729 0.161493 3.09693 -5.92598 -4.40304 8.30179
7 1 3.43258 3.0522 0.262845 0.670476 7.11199 -7.11485
8 1 3.2294 3.47354 3.05854 -1.38884 3.81141 -5.93236
9 1 1.65011 1.7247 1.93543 -0.00093041 1.19113 -4.29149
10 1 1.61165 1.92655 4.82534 6.15678 -1.09305 8.52508
11 1 1.87741 5.02325 1.40602 -6.56779 6.17304 8.95039
12 1 1.63874 5.27236 5.10436 4.23284 -1.74849 -5.1181
13 1 4.92266 1.42372 1.64254 0.592983 -7.17807 -8.17566
14 1 4.57764 1.48228 5.32581 4.40045 -3.9005 5.75331
15 1 5.41844 4.9695 1.19778 -3.80893 5.61824 -8.52115
16 1 4.91583 4.77902 4.78229 0.398913 -0.139376 -8.6469
ITEM: TIMESTEP
16000
ITEM: NUMBER OF ATOMS
16
ITEM: BOX BOUNDS xy xz yz pp pp pp
0.0000000000000000e+00 6.5999999999999996e+00 0.0000000000000000e+00
0.0000000000000000e+00 6.5999999999999996e+00 0.0000000000000000e+00
0.0000000000000000e+00 6.5999999999999996e+00 0.0000000000000000e+00
ITEM: ATOMS id type x y z fx fy fz
1 1 6.2605 0.226797 0.0591755 -5.18395 3.2038 -5.22449
2 1 6.39822 0.184576 3.12373 9.17472 -3.13036 3.73756
3 1 0.218498 3.15104 6.40619 -6.24377 5.20881 -5.69766
4 1 0.106043 3.28827 3.24709 9.75032 -1.23457 -2.21808
5 1 3.40891 6.52721 0.06449 5.51317 6.07374 -0.171932
6 1 3.04798 0.183112 3.21705 -7.32298 2.74454 8.85212
7 1 3.47524 3.20784 0.0379371 2.27258 -8.11111 -2.94026
8 1 3.52496 3.24405 3.28307 -4.21533 -9.61041 -5.49934
9 1 1.5556 1.56161 1.1941 -3.72421 -7.42654 9.59875
10 1 1.40207 1.6448 5.03311 -1.69601 -4.89578 1.7782
11 1 1.87616 4.76042 1.79864 3.0512 7.56664 1.01108
12 1 1.55907 5.06715 5.13536 6.84092 4.07969 5.02134
13 1 4.90914 1.57568 1.88965 4.99564 -5.36745 -1.97717
14 1 5.07515 1.63274 5.14889 -4.96603 7.57062 -4.03616
15 1 5.23939 5.02455 1.74571 -5.67294 -3.85666 3.4534
16 1 4.74309 4.92015 4.81579 -2.57334 7.18504 -5.68736
ITEM: TIMESTEP
17000
ITEM: NUMBER OF ATOMS
16
ITEM: BOX BOUNDS xy xz yz pp pp pp
0.0000000000000000e+00 6.5999999999999996e+00 0.0000000000000000e+00
0.0000000000000000e+00 6.5999999999999996e+00 0.0000000000000000e+00
0.0000000000000000e+00 6.5999999999999996e+00 0.0000000000000000e+00
ITEM: ATOMS id type x y z fx fy fz
1 1 0.320534 6.4508 0.0170545 -9.37182 -6.48376 -4.821
2 1 6.52254 6.44484 3.47997 3.0368 -8.22221 -6.8007
3 1 0.174238 3.63437 6.16471 -2.20601 -0.411636 10.8412
4 1 6.56086 3.22765 3.23951 -1.63547 0.881326 5.01205
5 1 2.98517 0.208693 6.47576 9.46637 -0.0764498 7.0599
6 1 3.41586 0.312105 3.41234 -6.55967 -7.84353 -8.84502
7 1 3.47157 3.24092 0.207077 3.09974 -6.84784 5.98822
8 1 3.28763 3.47699 3.37101 4.65914 10.22 7.82185
9 1 1.50169 1.1349 1.72586 -8.02526 7.18316 9.67774
10 1 1.31394 1.38215 4.73729 10.9431 10.9068 -6.24678
11 1 1.80985 4.59829 1.58408 -7.52927 -5.36606 -6.85108
12 1 1.6494 5.15657 4.80884 0.454491 2.78572 -7.82689
13 1 4.67864 1.58412 1.61568 4.20489 -1.36688 1.12346
14 1 5.00823 1.94108 4.88333 2.39953 0.528886 -8.41403
15 1 5.11746 4.90201 1.84397 -3.92454 -2.51113 6.57891
16 1 4.98239 5.10452 5.2335 0.987991 6.6236 -4.2978
ITEM: TIMESTEP
18000
ITEM: NUMBER OF ATOMS
16
ITEM: BOX BOUNDS xy xz yz pp pp pp
0.0000000000000000e+00 6.5999999999999996e+00 0.0000000000000000e+00
0.0000000000000000e+00 6.5999999999999996e+00 0.0000000000000000e+00
0.0000000000000000e+00 6.5999999999999996e+00 0.0000000000000000e+00
ITEM: ATOMS id type x y z fx fy fz
1 1 6.5244 0.464414 6.46853 10.3808 -11.6766 3.52818
2 1 6.53118 0.0924436 3.44078 7.44176 -2.78797 7.30479
3 1 0.0713801 3.27505 0.207109 6.50057 -2.27015 -5.21063
4 1 0.0729717 3.33077 3.33903 2.0015 5.61504 7.59537
5 1 3.52254 6.52643 0.0280431 -5.68445 -0.611852 -1.93209
6 1 2.82511 6.15582 3.21107 -1.84531 -6.60514 -0.99373
7 1 3.39826 3.35202 6.32149 1.76877 -1.85136 -1.23754
8 1 3.35483 3.00477 3.21615 -0.676697 -2.67521 4.44136
9 1 1.70597 1.55217 1.59509 -2.57626 3.32055 -3.80478
10 1 1.60431 1.92623 4.82939 -2.92757 3.70754 1.3556
11 1 1.4947 4.91683 1.34197 -2.09433 2.5168 -3.36494
12 1 1.7923 5.04999 5.11035 1.28132 2.45012 -2.2837
13 1 5.23474 1.57939 1.79454 -7.91649 5.34409 -4.82047
14 1 4.83446 1.81654 4.88017 -4.05453 5.45029 7.81386
15 1 4.93594 4.79202 1.88494 4.48738 -8.7276 -1.98475
16 1 4.89691 4.96512 5.13135 -6.08646 8.8015 -6.40653
ITEM: TIMESTEP
19000
ITEM: NUMBER OF ATOMS
16
ITEM: BOX BOUNDS xy xz yz pp pp pp
0.0000000000000000e+00 6.5999999999999996e+00 0.0000000000000000e+00
0.0000000000000000e+00 6.5999999999999996e+00 0.0000000000000000e+00
0.0000000000000000e+00 6.5999999999999996e+00 0.0000000000000000e+00
ITEM: ATOMS id type x y z fx fy fz
1 1 6.40813 0.208515 0.00958856 0.00597333 3.23065 1.48054
2 1 0.16899 6.43152 3.49751 1.80479 0.626002 -9.30633
3 1 6.36741 3.3214 6.50811 1.69076 -1.90166 -0.69678
4 1 6.4026 3.20021 3.41385 -6.42163 -2.65147 2.65243
5 1 3.17392 6.53641 6.45807 -6.86088 -0.972336 5.87817
6 1 3.32036 6.59789 3.01688 5.0699 -5.01494 8.93798
7 1 3.35659 3.26818 0.222772 4.93789 4.15478 -8.32001
8 1 3.23871 3.04702 3.3865 -0.884788 1.31027 1.17946
9 1 1.79075 1.89147 1.62186 0.580515 2.69305 -1.48431
10 1 1.69783 1.5926 4.81497 -0.545302 -3.67706 -2.3096
11 1 1.61828 5.14136 1.80915 4.26479 2.12364 0.611125
12 1 1.70163 4.63036 4.99093 -9.02686 2.69322 3.29949
13 1 5.16793 1.49161 1.73665 6.14 4.83561 3.84583
14 1 4.82639 1.69141 5.09246 -7.74134 -10.9036 -8.29791
15 1 5.17476 4.97348 1.56607 2.16424 3.34702 0.469055
16 1 4.98572 5.37657 4.65464 4.82195 0.106813 2.06085
ITEM: TIMESTEP
20000
ITEM: NUMBER OF ATOMS
16
ITEM: BOX BOUNDS xy xz yz pp pp pp
0.0000000000000000e+00 6.5999999999999996e+00 0.0000000000000000e+00
0.0000000000000000e+00 6.5999999999999996e+00 0.0000000000000000e+00
0.0000000000000000e+00 6.5999999999999996e+00 0.0000000000000000e+00
ITEM: ATOMS id type x y z fx fy fz
1 1 0.164351 6.5968 0.472982 -3.41258 -2.54753 -6.03972
2 1 6.36301 0.208135 3.36901 4.67933 -4.21953 1.59951
3 1 0.188533 3.3403 -0.00464655 9.64904 -6.07624 -6.40115
4 1 6.30171 3.2204 3.40297 -4.88303 -7.66337 -7.76529
5 1 3.21768 0.26715 0.204635 3.29988 5.19946 -1.85956
6 1 3.03127 6.58661 3.4728 2.55408 5.10937 -2.16627
7 1 3.54372 3.08053 6.19409 -6.40275 5.07327 0.570631
8 1 3.29379 3.41109 3.19915 6.41685 6.01326 -3.79073
9 1 1.60808 1.91511 1.65645 -2.76817 6.7554 10.5713
10 1 1.6249 1.55034 5.0627 3.06874 -5.19642 7.44745
11 1 1.69745 5.03745 1.44707 -2.65711 -0.876642 2.6892
12 1 1.67849 4.82922 4.51244 -3.20508 0.686814 6.21903
13 1 5.02083 1.51758 1.65269 -2.89623 -0.912924 -0.342162
14 1 4.94773 1.40356 5.10894 -0.709933 0.800874 -2.59959
15 1 4.76361 4.72706 1.57936 0.330339 0.112304 9.05298
16 1 5.35483 5.10866 4.86936 -3.06338 -2.25808 -7.18563
ITEM: TIMESTEP
21000
ITEM: NUMBER OF ATOMS
16
ITEM: BOX BOUNDS xy xz yz pp pp pp
0.0000000000000000e+00 6.5999999999999996e+00 0.0000000000000000e+00
0.0000000000000000e+00 6.5999999999999996e+00 0.0000000000000000e+00
0.0000000000000000e+00 6.5999999999999996e+00 0.0000000000000000e+00
ITEM: ATOMS id type x y z fx fy fz
1 1 0.0628591 0.106781 0.101065 0.910307 -0.898801 -6.76444
2 1 6.53495 6.44124 3.23349 2.23813 3.90897 -5.43168
3 1 -0.0705694 3.05327 -0.0262486 -6.72365 -4.72829 7.52745
4 1 6.52741 3.38893 3.25719 3.23958 0.399846 -5.52147
5 1 3.56791 0.189986 6.52732 -4.45184 5.99622 -1.40822
6 1 3.03475 6.44177 3.26198 -2.16302 10.7462 6.89063
7 1 3.24011 3.4509 0.0835465 10.1926 -3.63959 -2.56292
8 1 3.55286 3.20344 3.27807 3.26139 -2.24246 -5.00677
9 1 1.60262 1.65476 1.59267 -6.15428 4.76918 7.52768
10 1 1.61924 1.7297 4.75466 -3.91868 -1.01876 -0.820646
11 1 1.72345 4.63675 2.1459 -2.2193 4.71181 -1.50879
12 1 1.70072 5.12985 5.02047 -6.37308 -3.2582 -0.323563
13 1 4.70316 1.63623 1.58734 10.3325 -0.845618 -2.38838
14 1 5.06083 1.71773 4.70952 8.54997 -4.94289 -0.308382
15 1 5.21199 4.83125 1.67198 -6.02973 -3.86894 2.42649
16 1 4.72771 5.18742 5.00105 -0.690898 -5.08864 7.673
ITEM: TIMESTEP
22000
ITEM: NUMBER OF ATOMS
16
ITEM: BOX BOUNDS xy xz yz pp pp pp
0.0000000000000000e+00 6.5999999999999996e+00 0.0000000000000000e+00
0.0000000000000000e+00 6.5999999999999996e+00 0.0000000000000000e+00
0.0000000000000000e+00 6.5999999999999996e+00 0.0000000000000000e+00
ITEM: ATOMS id type x y z fx fy fz
1 1 0.269167 6.1953 0.0895209 6.12425 3.8087 -1.62452
2 1 6.51356 0.306182 3.44516 5.9626 -7.3315 1.42474
3 1 6.15371 3.12544 0.0707209 8.83438 -7.55587 4.52248
4 1 0.0830544 3.28114 3.10753 0.168452 1.23566 -2.06737
5 1 3.13636 0.126812 6.39489 8.61124 -7.10065 0.674681
6 1 2.99339 0.279094 3.32324 0.0744106 3.48461 4.08072
7 1 3.47639 3.49951 0.136101 -7.13354 8.89233 5.51538
8 1 3.71208 3.4255 3.25806 -3.59258 6.53539 1.12275
9 1 2.18842 1.59504 1.54562 -1.5405 -2.39714 4.21712
10 1 1.69332 1.50381 5.00061 -1.07684 6.16086 -6.29077
11 1 1.65844 4.89137 1.69756 -1.33076 -8.70373 -1.77941
12 1 1.42151 4.3855 5.03291 -8.43333 6.16595 -8.81734
13 1 4.82375 1.47156 1.57163 -3.02858 -0.153056 9.35952
14 1 4.94628 1.7858 5.06149 -3.43291 -5.05395 -8.75301
15 1 5.06927 5.22411 1.65647 1.48623 -2.44241 2.94865
16 1 4.66129 5.10382 4.80848 -1.69254 4.45481 -4.53361
ITEM: TIMESTEP
23000
ITEM: NUMBER OF ATOMS
16
ITEM: BOX BOUNDS xy xz yz pp pp pp
0.0000000000000000e+00 6.5999999999999996e+00 0.0000000000000000e+00
0.0000000000000000e+00 6.5999999999999996e+00 0.0000000000000000e+00
0.0000000000000000e+00 6.5999999999999996e+00 0.0000000000000000e+00
ITEM: ATOMS id type x y z fx fy fz
1 1 0.441613 6.34484 0.105211 7.08181 4.42729 -6.07285
2 1 6.49789 0.0465633 3.40125 0.741011 -1.29102 -5.58073
3 1 0.0498434 3.3532 6.48666 4.91462 0.730238 7.67708
4 1 6.20124 3.04665 3.34724 0.500723 2.1204 3.84358
5 1 3.63791 6.59044 6.45388 -0.136302 -1.31161 3.78035
6 1 3.13651 0.105371 3.25936 4.79581 7.811 -10.0521
7 1 3.33781 3.30607 6.31166 -1.57502 5.15573 1.69135
8 1 3.39632 3.82271 3.42425 4.31771 -6.45813 1.57187
9 1 1.50087 1.67726 1.48577 -5.33037 1.91009 6.33237
10 1 1.64808 1.7794 4.86062 -5.28536 6.44486 5.73291
11 1 1.58947 4.95214 1.75023 -7.44007 -8.0063 2.12665
12 1 1.68451 5.07142 5.08676 6.53084 -4.14084 -2.2463
13 1 4.72541 1.51388 1.73384 2.95351 -9.28407 2.92114
14 1 5.06691 1.54002 5.05165 -5.66824 8.17154 -9.19077
15 1 4.89097 4.73879 1.59403 -4.3841 -0.310246 -0.526376
16 1 4.99465 4.91123 5.0476 -2.01657 -5.96894 -2.00819
ITEM: TIMESTEP
24000
ITEM: NUMBER OF ATOMS
16
ITEM: BOX BOUNDS xy xz yz pp pp pp
0.0000000000000000e+00 6.5999999999999996e+00 0.0000000000000000e+00
0.0000000000000000e+00 6.5999999999999996e+00 0.0000000000000000e+00
0.0000000000000000e+00 6.5999999999999996e+00 0.0000000000000000e+00
ITEM: ATOMS id type x y z fx fy fz
1 1 6.32531 6.54774 0.526827 8.6458 -4.17604 4.41595
2 1 0.0356289 6.14942 3.24313 8.31597 6.95354 4.08668
3 1 0.0788656 3.4062 6.56194 -6.15459 -7.75979 -0.948258
4 1 0.295163 3.10229 3.41816 -0.753018 6.33928 1.05468
5 1 3.33684 0.205122 6.40099 7.85329 2.81731 7.6467
6 1 3.30234 0.0870085 2.97519 6.91125 0.481982 -5.02398
7 1 2.69199 3.55157 0.0898955 -4.16469 -2.86966 -1.07512
8 1 3.66738 3.15425 3.28917 5.31314 7.72718 -6.70762
9 1 1.74566 1.44426 1.13679 -3.61173 -9.71254 -5.915
10 1 1.79826 1.61778 4.94742 7.57233 7.45622 -5.00629
11 1 1.9482 4.92877 1.85923 -10.3303 -10.0547 -5.98221
12 1 1.38596 5.14303 5.09967 -2.07546 7.30665 -3.68938
13 1 5.08328 1.91126 1.79802 -4.02556 0.643972 4.23082
14 1 5.33152 1.84675 4.92805 -10.6069 -3.94699 9.27769
15 1 4.66646 4.81558 1.52745 -2.1698 -8.01537 -3.18752
16 1 4.50714 4.88897 4.99807 -0.719754 6.80896 6.82286
ITEM: TIMESTEP
25000
ITEM: NUMBER OF ATOMS
16
ITEM: BOX BOUNDS xy xz yz pp pp pp
0.0000000000000000e+00 6.5999999999999996e+00 0.0000000000000000e+00
0.0000000000000000e+00 6.5999999999999996e+00 0.0000000000000000e+00
0.0000000000000000e+00 6.5999999999999996e+00 0.0000000000000000e+00
ITEM: ATOMS id type x y z fx fy fz
1 1 0.0185133 0.0710279 0.132418 -6.45803 -1.37323 -1.46615