LAMMPS (29 Sep 2021 - Update 2)
variable        Tequil index 1800.0
variable        seed index 826626413

units           metal
atom_style	atomic
boundary        p p p

read_data        input.pos
Reading data file ...
  triclinic box = (0.0000000 0.0000000 0.0000000) to (6.6000000 6.6000000 6.6000000) with tilt (0.0000000 0.0000000 0.0000000)
  1 by 1 by 1 MPI processor grid
  reading atoms ...
  16 atoms
  read_data CPU = 0.000 seconds

mass            * 92.90638

pair_style mlip mlip.ini
pair_coeff * *

neighbor	0.5 bin
neigh_modify    every 1 delay 5 check yes

timestep	0.001

fix		1 all nve
fix		2 all langevin ${Tequil} ${Tequil} 0.1 ${seed} zero yes
fix		2 all langevin 1800.0 ${Tequil} 0.1 ${seed} zero yes
fix		2 all langevin 1800.0 1800.0 0.1 ${seed} zero yes
fix		2 all langevin 1800.0 1800.0 0.1 826626413 zero yes

thermo_style    custom step temp
thermo 1000

dump   1 all custom 1000 dump.nb id type x y z fx fy fz

run             100000
Neighbor list info ...
  update every 1 steps, delay 5 steps, check yes
  max neighbors/atom: 2000, page size: 100000
  master list distance cutoff = 5.5
  ghost atom cutoff = 5.5
  binsize = 2.75, bins = 3 3 3
  1 neighbor lists, perpetual/occasional/extra = 1 0 0
  (1) pair mlip, perpetual
      attributes: full, newton on
      pair build: full/bin/atomonly
      stencil: full/bin/3d
      bin: standard
Per MPI rank memory allocation (min/avg/max) = 4.312 | 4.312 | 4.312 Mbytes
Step Temp 
       0            0 
    1000    1492.5596 
    2000    1653.1459 
    3000    1198.4936 
    4000    2059.1747 
    5000    1760.3653 
    6000    1722.9379 
    7000    2079.1043 
    8000    988.35582 
    9000    1675.4147 
   10000    2001.0013 
   11000    1949.1072 
   12000    1799.0255 
   13000    1793.9912 
   14000    2290.8083 
   15000    2048.1406 
   16000    2640.2832 
   17000    1556.4566 
   18000     2102.059 
   19000    1386.0601 
   20000    1838.3575 
   21000    1147.2756 
   22000    1970.2033 
   23000    1950.1199 
   24000    1765.7782 
   25000    1826.2651 
   26000    1662.7169 
   27000    1055.8298 
   28000     1810.175 
   29000    1820.0479 
   30000    2459.9148 
   31000    1553.0427 
   32000       2628.2 
   33000    1884.6345 
   34000    2492.7891 
   35000     1645.513 
   36000    1386.8476 
   37000    1216.1178 
   38000    2163.1771 
   39000    2582.2866 
   40000    1933.7211 
   41000    1982.5465 
   42000    2311.5947 
   43000    1241.3049 
   44000    1616.0828 
   45000    2468.1183 
   46000    1329.4258 
   47000    2701.7068 
   48000    1421.9168 
   49000    2017.1885 
   50000    1233.8032 
   51000    1244.6171 
   52000     2307.939 
   53000    1920.3131 
   54000     1734.399 
   55000    1142.6617 
   56000    1138.8274 
   57000    1682.5456 
   58000    2269.0902 
   59000    1546.2084 
   60000    2012.7444 
   61000    2714.0887 
   62000     1839.154 
   63000    1758.2768 
   64000    1692.6175 
   65000    2346.5529 
   66000    2235.4296 
   67000    1969.0701 
   68000    1920.2183 
   69000    1954.0585 
   70000    2212.9564 
   71000    2187.2839 
   72000    1507.2189 
   73000    1327.4094 
   74000    1986.6693 
   75000     1234.095 
   76000    1984.9495 
   77000    2098.9592 
   78000    1876.9399 
   79000    1428.7533 
   80000    2307.0545 
   81000    2820.9741 
   82000     1479.907 
   83000    1849.3276 
   84000    1625.5174 
   85000    1659.3418 
   86000    1670.7582 
   87000    1143.4631 
   88000    2069.6805 
   89000    1713.4776 
   90000    1791.1177 
   91000     1809.558 
   92000    2018.8395 
   93000    1793.0236 
   94000    1870.9926 
   95000    1509.0156 
   96000    1626.8822 
   97000     1841.237 
   98000    1694.9248 
   99000    1635.1057 
  100000    1254.0411 
Loop time of 177.293 on 1 procs for 100000 steps with 16 atoms

Performance: 48.733 ns/day, 0.492 hours/ns, 564.037 timesteps/s
99.5% CPU use with 1 MPI tasks x no OpenMP threads

MPI task timing breakdown:
Section |  min time  |  avg time  |  max time  |%varavg| %total
---------------------------------------------------------------
Pair    | 176.59     | 176.59     | 176.59     |   0.0 | 99.60
Neigh   | 0.17363    | 0.17363    | 0.17363    |   0.0 |  0.10
Comm    | 0.23965    | 0.23965    | 0.23965    |   0.0 |  0.14
Output  | 0.0053949  | 0.0053949  | 0.0053949  |   0.0 |  0.00
Modify  | 0.20671    | 0.20671    | 0.20671    |   0.0 |  0.12
Other   |            | 0.07887    |            |       |  0.04

Nlocal:        16.0000 ave          16 max          16 min
Histogram: 1 0 0 0 0 0 0 0 0 0
Nghost:        325.000 ave         325 max         325 min
Histogram: 1 0 0 0 0 0 0 0 0 0
Neighs:         0.00000 ave           0 max           0 min
Histogram: 1 0 0 0 0 0 0 0 0 0
FullNghs:      624.000 ave         624 max         624 min
Histogram: 1 0 0 0 0 0 0 0 0 0

Total # of neighbors = 624
Ave neighs/atom = 39.000000
Neighbor list builds = 4148
Dangerous builds = 0
reset_timestep  0
Total wall time: 0:02:57
