ITEM: TIMESTEP
0
ITEM: NUMBER OF ATOMS
16
ITEM: BOX BOUNDS xy xz yz pp pp pp
0.0000000000000000e+00 6.5999999999999996e+00 0.0000000000000000e+00
0.0000000000000000e+00 6.5999999999999996e+00 0.0000000000000000e+00
0.0000000000000000e+00 6.5999999999999996e+00 0.0000000000000000e+00
ITEM: ATOMS id type x y z fx fy fz
1 1 0 0 0 -2.35897 -0.253686 0.0521317
2 1 0 0 3.3 -1.51942 0.402077 -1.98896
3 1 0 3.3 0 -2.3877 -3.10209 2.60662
4 1 0 3.3 3.3 -1.09572 -0.341442 -0.439181
5 1 3.3 0 0 -3.52657 -2.61998 2.19152
6 1 3.3 0 3.3 1.76933 -0.724476 3.60202
7 1 3.3 3.3 0 -3.60434 2.42381 -0.0942724
8 1 3.3 3.3 3.3 -3.26782 -0.290637 -1.37116
9 1 1.65 1.65 1.65 0.942536 -1.17235 1.93972
10 1 1.65 1.65 4.95 -1.63381 1.83097 1.22436
11 1 1.65 4.95 1.65 1.21732 1.12886 -3.33872
12 1 1.65 4.95 4.95 3.93225 -3.81672 -1.34598
13 1 4.95 1.65 1.65 3.28032 0.768317 -2.06498
14 1 4.95 1.65 4.95 2.74356 2.15672 -3.58512
15 1 4.95 4.95 1.65 2.36741 0.577136 2.39282
16 1 4.95 4.95 4.95 3.14162 3.03349 0.219182
ITEM: TIMESTEP
1000
ITEM: NUMBER OF ATOMS
16
ITEM: BOX BOUNDS xy xz yz pp pp pp
0.0000000000000000e+00 6.5999999999999996e+00 0.0000000000000000e+00
0.0000000000000000e+00 6.5999999999999996e+00 0.0000000000000000e+00
0.0000000000000000e+00 6.5999999999999996e+00 0.0000000000000000e+00
ITEM: ATOMS id type x y z fx fy fz
1 1 0.0930118 6.43364 6.67169 -0.109016 2.42859 0.42747
2 1 -0.0200242 6.56317 3.25367 -3.14451 -1.54924 -0.927871
3 1 -0.0289527 3.28511 6.61773 3.50014 -3.16461 -1.23682
4 1 -0.0944445 3.27059 3.30894 1.62687 4.25044 -1.88779
5 1 3.43427 0.0230667 6.63152 -3.76899 2.44108 -2.19496
6 1 3.31214 6.63629 3.40687 3.59864 -2.71796 -0.278284
7 1 3.30224 3.37634 0.0484839 -3.61946 -2.61618 -1.46776
8 1 3.25806 3.39104 3.37112 -3.1503 -1.62941 3.14447
9 1 1.72843 1.65423 1.58554 2.11249 -3.07781 0.29295
10 1 1.74391 1.67441 4.91172 0.802996 4.0244 0.485019
11 1 1.50938 4.92684 1.71758 1.31689 1.56288 2.08334
12 1 1.58419 4.95244 5.01595 -3.58863 -3.31313 1.16064
13 1 4.96525 1.81759 1.63446 0.6493 1.53633 -0.110126
14 1 5.07295 1.54002 4.8803 -1.97466 2.62952 -3.04897
15 1 4.82262 4.95013 1.55303 3.48784 1.50073 4.18836
16 1 4.91696 4.90509 4.79138 2.26041 -2.30563 -0.629677
ITEM: TIMESTEP
2000
ITEM: NUMBER OF ATOMS
16
ITEM: BOX BOUNDS xy xz yz pp pp pp
0.0000000000000000e+00 6.5999999999999996e+00 0.0000000000000000e+00
0.0000000000000000e+00 6.5999999999999996e+00 0.0000000000000000e+00
0.0000000000000000e+00 6.5999999999999996e+00 0.0000000000000000e+00
ITEM: ATOMS id type x y z fx fy fz
1 1 0.0478327 6.62069 0.0504485 -1.13036 -1.21181 -0.90889
2 1 0.0595466 6.65588 3.24637 -0.150806 1.47692 -0.100155
3 1 0.0729716 3.32205 0.138802 0.542107 -2.35971 -4.03206
4 1 0.0678853 3.23189 3.44019 0.388441 -0.97391 0.397218
5 1 3.26225 0.027055 6.43097 0.284111 0.940695 -3.21238
6 1 3.31752 0.00895893 3.24408 0.173047 0.104213 1.588
7 1 3.1762 3.32916 0.021148 -2.89861 -3.01659 -3.48144
8 1 3.3174 3.28186 3.21845 -0.187873 -0.426569 3.01331
9 1 1.62124 1.60525 1.71874 2.02907 0.205517 0.436232
10 1 1.73597 1.68245 5.05753 -3.12479 -2.02431 -2.9524
11 1 1.67741 4.95951 1.65812 2.3178 3.45046 3.09088
12 1 1.64946 5.02123 4.97003 0.0651308 -3.85993 2.16941
13 1 4.77121 1.66006 1.72752 1.23306 1.22883 -2.87039
14 1 4.93367 1.62061 4.98799 -0.304138 4.08751 1.70717
15 1 4.90467 4.89533 1.51544 -2.42226 3.01157 0.916893
16 1 4.98476 4.87801 4.77415 3.18605 -0.632887 4.2386
ITEM: TIMESTEP
3000
ITEM: NUMBER OF ATOMS
16
ITEM: BOX BOUNDS xy xz yz pp pp pp
0.0000000000000000e+00 6.5999999999999996e+00 0.0000000000000000e+00
0.0000000000000000e+00 6.5999999999999996e+00 0.0000000000000000e+00
0.0000000000000000e+00 6.5999999999999996e+00 0.0000000000000000e+00
ITEM: ATOMS id type x y z fx fy fz
1 1 6.58 6.57772 0.10316 -2.12594 -0.607591 3.07143
2 1 0.0074132 0.134053 3.39769 -3.66474 -1.10404 -2.45884
3 1 6.52068 3.33641 6.57679 2.81918 -1.16926 -0.768544
4 1 0.0501651 3.35867 3.22489 -1.1996 -0.808737 3.4113
5 1 3.33591 0.0320777 6.53488 -0.872665 -1.02787 -1.73005
6 1 3.23188 6.57889 3.30139 3.20095 -0.679967 0.893726
7 1 3.25286 3.29009 0.05833 1.39091 -0.978511 -1.06429
8 1 3.34079 3.24508 3.26771 0.250955 2.28264 -0.600179
9 1 1.69016 1.54946 1.58286 -0.442585 1.17298 -0.170629
10 1 1.73143 1.66473 4.88502 3.40801 3.2636 -0.743308
11 1 1.62777 5.01332 1.60024 -1.03732 -2.41422 -1.21112
12 1 1.55411 4.92821 5.05473 -1.80065 -0.832187 0.843157
13 1 5.14391 1.53429 1.65405 -2.21582 2.07672 0.159226
14 1 4.97751 1.74174 4.93685 0.665028 -2.42566 1.23737
15 1 4.92986 4.82176 1.66555 -2.35215 4.93534 -3.15302
16 1 4.82554 4.99349 4.95587 3.97644 -1.68324 2.28377
ITEM: TIMESTEP
4000
ITEM: NUMBER OF ATOMS
16
ITEM: BOX BOUNDS xy xz yz pp pp pp
0.0000000000000000e+00 6.5999999999999996e+00 0.0000000000000000e+00
0.0000000000000000e+00 6.5999999999999996e+00 0.0000000000000000e+00
0.0000000000000000e+00 6.5999999999999996e+00 0.0000000000000000e+00
ITEM: ATOMS id type x y z fx fy fz
1 1 6.59235 6.45434 6.60917 0.346477 0.438675 -4.03776
2 1 6.5827 6.63471 3.25269 0.361995 -1.37001 0.295823
3 1 6.65531 3.1411 0.0856659 -0.637337 1.02679 2.73695
4 1 0.055627 3.36739 3.3437 1.18499 -0.86836 1.13363
5 1 3.27714 0.0161333 0.0756446 -0.0347462 0.784474 2.88929
6 1 3.26425 0.0546575 3.31614 1.2948 -0.537635 3.20702
7 1 3.31704 3.19232 0.0878365 -0.158675 -1.53791 -3.28553
8 1 3.33191 3.33303 3.33151 3.11822 0.406866 0.853579
9 1 1.55112 1.63812 1.56031 2.63263 3.04847 -2.02201
10 1 1.72976 1.59686 4.79946 -0.632399 1.82973 0.330334
11 1 1.52231 4.95533 1.81849 0.942305 0.619808 0.196408
12 1 1.69136 4.91165 4.99205 -0.889609 2.14622 -1.33874
13 1 4.89072 1.63343 1.44651 -2.8822 -3.74103 -1.7865
14 1 5.14007 1.82831 4.83584 0.187182 -0.442709 -3.2733
15 1 4.80931 4.85152 1.72157 -2.94904 1.16523 0.405971
16 1 4.98902 5.1911 4.92341 -1.88458 -2.96862 3.69484
ITEM: TIMESTEP
5000
ITEM: NUMBER OF ATOMS
16
ITEM: BOX BOUNDS xy xz yz pp pp pp
0.0000000000000000e+00 6.5999999999999996e+00 0.0000000000000000e+00
0.0000000000000000e+00 6.5999999999999996e+00 0.0000000000000000e+00
0.0000000000000000e+00 6.5999999999999996e+00 0.0000000000000000e+00
ITEM: ATOMS id type x y z fx fy fz
1 1 6.68162 6.65365 0.00240056 -3.14016 -3.80855 0.799845
2 1 6.43745 0.0792239 3.33908 0.939693 2.77657 -2.14665
3 1 0.153357 3.19442 6.65202 -0.936963 -1.2719 -2.84173
4 1 6.46797 3.25067 3.26271 -0.062388 -2.33637 4.37447
5 1 3.36005 6.67814 0.0253591 0.868976 1.55371 1.78348
6 1 3.23992 6.49632 3.29948 3.75264 0.822335 -0.698006
7 1 3.38179 3.2359 6.62336 -2.92576 -2.2031 3.47625
8 1 3.235 3.38066 3.34638 -1.26508 -2.59887 -1.34332
9 1 1.76307 1.46739 1.68719 2.52291 -1.62008 2.4305
10 1 1.67136 1.61864 5.05344 -1.9143 4.2475 -2.90164
11 1 1.58563 4.87166 1.56307 3.37844 0.461658 -1.83373
12 1 1.69016 4.91976 4.86501 -3.60158 3.46693 -1.29381
13 1 5.04336 1.73291 1.53545 3.02576 -3.40056 0.23391
14 1 4.97045 1.79469 4.92585 -1.58719 0.726506 0.805424
15 1 4.95145 5.02054 1.58043 -0.592126 3.41897 -1.74181
16 1 4.76737 5.00543 5.03877 1.53713 -0.234741 0.896809
ITEM: TIMESTEP
6000
ITEM: NUMBER OF ATOMS
16
ITEM: BOX BOUNDS xy xz yz pp pp pp
0.0000000000000000e+00 6.5999999999999996e+00 0.0000000000000000e+00
0.0000000000000000e+00 6.5999999999999996e+00 0.0000000000000000e+00
0.0000000000000000e+00 6.5999999999999996e+00 0.0000000000000000e+00
ITEM: ATOMS id type x y z fx fy fz
1 1 6.53131 0.104157 0.132649 2.44006 -2.3338 -2.83283
2 1 6.57291 -0.0923557 3.18211 -1.13763 0.855804 -3.17071
3 1 -0.0401652 3.23962 0.0337227 1.46759 -2.10302 1.25095
4 1 0.126343 3.42691 3.30554 -2.78373 -4.52927 -1.95876
5 1 3.29886 6.58742 6.53597 0.872169 0.829251 -1.12954
6 1 3.20081 6.55754 3.22966 2.92554 -1.10388 -0.195531
7 1 3.32172 3.19433 6.46232 2.64549 0.138801 4.38043
8 1 3.35836 3.25361 3.36847 -0.398095 4.12146 -1.90723
9 1 1.73379 1.6367 1.65982 1.45263 0.524621 3.92586
10 1 1.59644 1.65556 4.94796 -4.3738 2.33554 2.78951
11 1 1.68883 4.97465 1.75506 -1.23815 0.19009 -1.88039
12 1 1.55546 4.93829 5.02589 -0.751929 -1.19477 -2.58598
13 1 4.86339 1.80015 1.66737 1.13559 -3.73617 0.744406
14 1 4.9912 1.51486 4.80534 -1.79262 3.72026 -0.143799
15 1 4.94518 5.02933 1.6889 -2.70322 3.10792 1.94523
16 1 5.05557 4.97923 4.99923 2.24011 -0.822833 0.768374
ITEM: TIMESTEP
7000
ITEM: NUMBER OF ATOMS
16
ITEM: BOX BOUNDS xy xz yz pp pp pp
0.0000000000000000e+00 6.5999999999999996e+00 0.0000000000000000e+00
0.0000000000000000e+00 6.5999999999999996e+00 0.0000000000000000e+00
0.0000000000000000e+00 6.5999999999999996e+00 0.0000000000000000e+00
ITEM: ATOMS id type x y z fx fy fz
1 1 0.0157102 -0.0245355 6.60661 0.953822 -2.67902 1.89684
2 1 0.170695 6.64759 3.24255 1.66408 -3.26473 -0.274626
3 1 6.58904 3.33183 6.47953 -1.48098 0.391569 0.189876
4 1 0.0560887 3.17203 3.24706 -0.118651 -0.318749 0.619548
5 1 3.26542 6.47433 6.49845 -1.44911 4.00623 0.486692
6 1 3.37667 0.0659664 3.22234 1.75196 0.101616 0.821319
7 1 3.28032 3.33171 0.0785678 -3.70678 1.33852 -2.1741
8 1 3.24102 3.34319 3.38492 3.12651 3.5546 -4.22224
9 1 1.55543 1.6782 1.76471 1.86932 2.82424 1.93885
10 1 1.75431 1.485 5.04432 0.957075 3.58261 3.02416
11 1 1.53541 4.92997 1.56452 -0.0849449 0.851904 0.850928
12 1 1.60377 4.83037 5.02435 2.97455 -0.800004 -3.41978
13 1 4.92362 1.73392 1.65289 -4.67671 0.348499 -1.0975
14 1 4.99244 1.73992 4.92984 3.07961 -3.21682 2.00029
15 1 4.93275 5.08766 1.6787 -4.83807 -4.73363 -3.71966
16 1 4.90732 4.97284 4.98063 -0.0216867 -1.98681 3.0794
ITEM: TIMESTEP
8000
ITEM: NUMBER OF ATOMS
16
ITEM: BOX BOUNDS xy xz yz pp pp pp
0.0000000000000000e+00 6.5999999999999996e+00 0.0000000000000000e+00
0.0000000000000000e+00 6.5999999999999996e+00 0.0000000000000000e+00
0.0000000000000000e+00 6.5999999999999996e+00 0.0000000000000000e+00
ITEM: ATOMS id type x y z fx fy fz
1 1 6.57935 0.0803002 6.39074 -0.0594758 0.562078 1.87808
2 1 0.0426326 6.64107 3.21716 1.33696 0.313142 -2.92928
3 1 0.156182 3.30414 0.0612416 0.654495 2.27537 -3.94686
4 1 6.60292 3.22461 3.27399 -0.428331 -2.19991 2.84648
5 1 3.27788 -0.0234101 0.0541643 2.50901 1.9498 1.7487
6 1 3.23469 -0.0637743 3.40384 -0.490629 -1.57005 -1.18122
7 1 3.35022 3.31411 6.6117 -2.01175 -2.50426 0.395044
8 1 3.204 3.35953 3.18368 2.31668 0.0657918 2.3545
9 1 1.74109 1.68141 1.7694 -2.29376 3.72783 -0.573637
10 1 1.7728 1.72088 5.11406 -2.50803 2.25958 -0.694388
11 1 1.45434 5.08403 1.73011 -1.28042 -0.469942 -0.608156
12 1 1.71849 4.98707 4.94427 2.43082 -1.42013 2.46653
13 1 4.89793 1.71696 1.77634 2.76406 -1.95855 -4.67721
14 1 4.9608 1.54021 5.0235 -1.32275 0.247703 3.56765
15 1 4.74168 4.92648 1.47373 -1.75563 -0.603094 2.69483
16 1 5.06499 4.70639 4.77207 0.138756 -0.67535 -3.34107
ITEM: TIMESTEP
9000
ITEM: NUMBER OF ATOMS
16
ITEM: BOX BOUNDS xy xz yz pp pp pp
0.0000000000000000e+00 6.5999999999999996e+00 0.0000000000000000e+00
0.0000000000000000e+00 6.5999999999999996e+00 0.0000000000000000e+00
0.0000000000000000e+00 6.5999999999999996e+00 0.0000000000000000e+00
ITEM: ATOMS id type x y z fx fy fz
1 1 0.0776297 6.44439 6.54206 1.12619 2.8257 -0.940202
2 1 6.38115 6.46902 3.31261 2.97572 -2.32494 1.89579
3 1 6.62514 3.09075 0.0982173 0.7577 0.342492 -1.76644
4 1 6.54306 3.21253 3.3334 2.57655 -0.956579 -4.3664
5 1 3.3828 6.58135 0.0726976 -3.42067 -2.6221 2.4998
6 1 3.29861 -0.0312562 3.3614 1.72968 -0.6019 0.63863
7 1 3.31413 3.27631 -0.033368 -0.178681 -0.437272 -0.00990606
8 1 3.27833 3.49896 3.32906 0.138066 2.71712 0.634035
9 1 1.75184 1.6885 1.68644 -1.46466 1.53468 1.91841
10 1 1.70532 1.69437 4.86195 -4.02524 -1.51244 -0.171768
11 1 1.6129 5.19514 1.63159 3.43079 2.10693 0.641207
12 1 1.62098 4.90854 4.91046 -1.062 -0.827824 0.636331
13 1 5.04107 1.7441 1.56113 -2.40529 -0.796721 1.46648
14 1 4.93401 1.56298 4.93905 0.697931 -1.47442 -3.22815
15 1 4.96741 5.04687 1.58325 -0.222009 2.0596 1.1593
16 1 4.86562 5.01746 5.01006 -0.654081 -0.032323 -1.00712
ITEM: TIMESTEP
10000
ITEM: NUMBER OF ATOMS
16
ITEM: BOX BOUNDS xy xz yz pp pp pp
0.0000000000000000e+00 6.5999999999999996e+00 0.0000000000000000e+00
0.0000000000000000e+00 6.5999999999999996e+00 0.0000000000000000e+00
0.0000000000000000e+00 6.5999999999999996e+00 0.0000000000000000e+00
ITEM: ATOMS id type x y z fx fy fz
1 1 6.54488 0.0659836 6.51629 1.19261 -0.100364 2.87377
2 1 0.0379804 0.0603433 3.25148 -0.202834 -2.50426 -3.19123
3 1 0.0703199 3.38399 6.61255 -1.43525 1.7929 0.551671
4 1 6.53321 3.3561 3.24125 1.64037 -2.7538 0.704076
5 1 3.31572 6.49965 0.0247826 1.41312 3.58102 -1.53192
6 1 3.25688 6.61807 3.33539 -0.716287 2.77879 0.782615
7 1 3.35522 3.19455 0.0158182 2.88984 2.32202 1.49294
8 1 3.25825 3.33987 3.37068 -0.0383627 1.60134 -3.00095
9 1 1.61987 1.68279 1.74667 -2.58294 1.17745 -2.2108
10 1 1.71901 1.57923 4.96977 1.67036 -1.10017 2.98472
11 1 1.6212 4.83798 1.60904 0.185463 -0.166952 -1.57856
12 1 1.58663 4.92908 4.89117 0.147312 -1.61619 -0.176621
13 1 5.08632 1.66537 1.65831 -2.45762 0.611746 -1.3317
14 1 5.02339 1.65643 4.87622 -1.00309 1.4213 0.652629
15 1 4.82611 4.99632 1.58695 2.62651 -3.86133 3.58997
16 1 4.94499 4.93424 5.09363 -3.32921 -3.1835 -0.610599
ITEM: TIMESTEP
11000
ITEM: NUMBER OF ATOMS
16
ITEM: BOX BOUNDS xy xz yz pp pp pp
0.0000000000000000e+00 6.5999999999999996e+00 0.0000000000000000e+00
0.0000000000000000e+00 6.5999999999999996e+00 0.0000000000000000e+00
0.0000000000000000e+00 6.5999999999999996e+00 0.0000000000000000e+00
ITEM: ATOMS id type x y z fx fy fz
1 1 6.66593 6.62073 6.46332 -3.323 2.66811 -1.7428
2 1 9.4891e-05 -0.000284392 3.19819 3.59289 3.57226 -0.263637
3 1 6.43971 3.28969 0.000924305 -1.65527 -2.29115 -1.25371
4 1 6.5892 3.35867 3.25661 -1.10711 -3.07409 3.47699
5 1 3.15979 6.654 6.68505 0.46527 2.38818 0.0490178
6 1 3.34123 0.0377828 3.32687 -2.60096 0.478005 -3.63724
7 1 3.42285 3.2513 0.0728489 -1.4374 -2.9482 -0.278
8 1 3.29018 3.32332 3.23039 0.223666 3.53462 3.3453
9 1 1.54936 1.56534 1.63082 -0.659548 -2.2416 -3.65015
10 1 1.50809 1.79553 4.9568 4.15605 1.19925 1.75557
11 1 1.69065 4.92857 1.82878 -2.21539 -0.700329 -2.36772
12 1 1.83465 4.95527 5.03924 2.2004 1.99266 -2.39659
13 1 5.03874 1.54778 1.58312 -2.36693 -2.3165 4.09023
14 1 4.86844 1.68837 4.92924 1.8026 -1.20715 1.12495
15 1 4.87442 4.91498 1.66706 1.74677 1.22557 3.22224
16 1 5.12667 4.86895 4.93072 1.17798 -2.27965 -1.47446
ITEM: TIMESTEP
12000
ITEM: NUMBER OF ATOMS
16
ITEM: BOX BOUNDS xy xz yz pp pp pp
0.0000000000000000e+00 6.5999999999999996e+00 0.0000000000000000e+00
0.0000000000000000e+00 6.5999999999999996e+00 0.0000000000000000e+00
0.0000000000000000e+00 6.5999999999999996e+00 0.0000000000000000e+00
ITEM: ATOMS id type x y z fx fy fz
1 1 6.56138 0.135038 -0.0266149 -3.22262 -0.753005 -2.32264
2 1 -0.0644388 -0.0024894 3.32345 -3.12505 2.49692 1.20454
3 1 0.00960483 3.37865 6.40653 -0.752847 -3.44619 1.40174
4 1 6.64595 3.2883 3.17558 -0.34153 4.22802 -1.77733
5 1 3.391 6.48358 6.70839 1.10434 -1.5591 -1.49668
6 1 3.24485 0.0551365 3.40524 2.93783 0.187072 0.795376
7 1 3.32691 3.23053 6.63565 -3.2733 2.29088 -0.803176
8 1 3.27369 3.34312 3.30815 1.55158 0.498571 -2.81978
9 1 1.53292 1.70049 1.59342 -0.497501 2.4822 3.5402
10 1 1.71507 1.71453 5.0691 1.29976 -2.33457 1.89733
11 1 1.73233 5.06084 1.65457 0.284724 0.996205 2.19179
12 1 1.64209 4.97564 5.03506 -2.1339 -2.71772 -1.54895
13 1 4.82175 1.47445 1.73498 3.07612 -0.69756 1.24916
14 1 4.99365 1.62129 5.0288 -1.88983 -2.20958 -1.50319
15 1 4.94702 4.80363 1.57552 2.16426 -2.48085 2.42803
16 1 5.02622 4.93727 4.77217 2.81796 3.0187 -2.43645
ITEM: TIMESTEP
13000
ITEM: NUMBER OF ATOMS
16
ITEM: BOX BOUNDS xy xz yz pp pp pp
0.0000000000000000e+00 6.5999999999999996e+00 0.0000000000000000e+00
0.0000000000000000e+00 6.5999999999999996e+00 0.0000000000000000e+00
0.0000000000000000e+00 6.5999999999999996e+00 0.0000000000000000e+00
ITEM: ATOMS id type x y z fx fy fz
1 1 0.0990431 0.0761994 0.005846 -0.0660787 -1.07533 3.12157
2 1 0.0548588 6.55113 3.33582 -1.97381 0.788109 1.2926
3 1 6.56999 3.32795 6.56292 0.314585 1.77043 2.08853
4 1 0.106888 3.2316 3.08468 -3.3459 -1.38808 1.45059
5 1 3.27672 6.557 0.0987599 -2.5389 -0.938259 -0.614684
6 1 3.29944 6.57517 3.37334 -1.34951 0.362399 -1.49479
7 1 3.36801 3.2979 6.52923 -1.17743 -0.410723 2.62035
8 1 3.30695 3.44158 3.17701 -0.629196 0.195854 -2.3039
9 1 1.58792 1.65718 1.76476 4.46764 0.397742 -1.69847
10 1 1.69898 1.80145 5.08284 -3.08798 -3.08323 -1.66884
11 1 1.53119 4.91084 1.72593 3.99411 3.80378 -2.33051
12 1 1.54888 4.85172 4.94938 -1.02822 3.25378 -0.806654
13 1 4.9527 1.52095 1.69113 -3.2949 1.82399 -1.75781
14 1 4.96255 1.69315 4.84257 2.03686 -1.19326 3.59084
15 1 5.00238 4.96465 1.52165 3.42703 -1.41853 0.152436
16 1 4.83349 4.94153 5.05413 4.25168 -2.88867 -1.64127
ITEM: TIMESTEP
14000
ITEM: NUMBER OF ATOMS
16
ITEM: BOX BOUNDS xy xz yz pp pp pp
0.0000000000000000e+00 6.5999999999999996e+00 0.0000000000000000e+00
0.0000000000000000e+00 6.5999999999999996e+00 0.0000000000000000e+00
0.0000000000000000e+00 6.5999999999999996e+00 0.0000000000000000e+00
ITEM: ATOMS id type x y z fx fy fz
1 1 0.017465 0.107692 -0.0453291 3.57011 1.612 3.83334
2 1 6.48698 0.0864506 3.34862 -1.62346 -1.76879 -1.82983
3 1 0.0315337 3.39129 0.0742386 -0.938174 -0.0521112 -2.33368
4 1 0.0636676 3.30796 3.44444 1.16389 -0.418977 0.85289
5 1 3.36295 6.57168 6.47875 3.45833 1.82083 2.61755
6 1 3.23305 0.0418158 3.33635 -0.351905 -1.28389 -3.16447
7 1 3.23863 3.27357 6.47894 0.265438 -2.64554 2.29094
8 1 3.32723 3.26633 3.19349 3.27415 -3.90302 -2.02238
9 1 1.65856 1.51846 1.67594 -1.01875 -0.644145 -1.40519
10 1 1.484 1.57939 5.05846 -1.89635 -2.72394 0.271697
11 1 1.72553 4.92808 1.55046 0.345539 -0.882032 4.00344
12 1 1.61475 4.81636 4.89101 -1.22468 3.84504 -1.10678
13 1 5.01171 1.68555 1.67074 -3.12602 0.66093 2.96915
14 1 4.93472 1.73663 4.97053 3.12587 1.9675 0.235721
15 1 4.98078 4.86375 1.77483 -2.93788 1.31843 -2.85402
16 1 5.02844 5.02499 4.89853 -2.08609 3.09772 -2.35838
ITEM: TIMESTEP
15000
ITEM: NUMBER OF ATOMS
16
ITEM: BOX BOUNDS xy xz yz pp pp pp
0.0000000000000000e+00 6.5999999999999996e+00 0.0000000000000000e+00
0.0000000000000000e+00 6.5999999999999996e+00 0.0000000000000000e+00
0.0000000000000000e+00 6.5999999999999996e+00 0.0000000000000000e+00
ITEM: ATOMS id type x y z fx fy fz
1 1 8.89389e-05 6.59272 6.58825 1.14999 -1.7744 2.3501
2 1 6.55423 0.0394402 3.38739 1.83434 0.443351 -2.37998
3 1 6.56983 3.25738 0.0363306 1.5021 -1.93139 3.47397
4 1 6.58805 3.25355 3.34945 -1.52155 -0.515445 1.40044
5 1 3.35221 6.51003 0.0293324 -2.52734 1.51508 1.6935
6 1 3.28317 0.111555 3.21914 -2.50751 -1.87761 3.29405
7 1 3.39574 3.24345 0.0863463 0.135445 2.5927 -2.97859
8 1 3.22271 3.39779 3.22275 -0.392209 1.41182 -2.39612
9 1 1.64704 1.66207 1.73395 0.183423 0.515148 -1.67214
10 1 1.64134 1.74845 4.97329 2.45144 -0.408525 3.27689
11 1 1.71834 4.96445 1.5948 -2.46409 2.75281 3.44504
12 1 1.62039 5.09369 4.99972 1.89064 -0.697363 -1.93626
13 1 4.93905 1.5533 1.63453 0.0658255 -2.94864 -3.3424
14 1 4.75834 1.59468 5.08284 1.83703 -1.69282 2.5084
15 1 5.15682 4.90208 1.49957 -1.70689 2.61579 -3.64554
16 1 4.95267 4.87535 4.76231 0.0693478 -0.000511985 -3.09138
ITEM: TIMESTEP
16000
ITEM: NUMBER OF ATOMS
16
ITEM: BOX BOUNDS xy xz yz pp pp pp
0.0000000000000000e+00 6.5999999999999996e+00 0.0000000000000000e+00
0.0000000000000000e+00 6.5999999999999996e+00 0.0000000000000000e+00
0.0000000000000000e+00 6.5999999999999996e+00 0.0000000000000000e+00
ITEM: ATOMS id type x y z fx fy fz
1 1 6.47008 0.0660252 6.59501 -2.09314 1.56677 -2.24419
2 1 6.49443 0.0521897 3.20415 3.70618 -1.19997 1.44964
3 1 0.138013 3.23497 6.54738 -2.65034 1.95936 -2.54835
4 1 0.0139854 3.28668 3.24159 4.08434 -0.395885 -0.714532
5 1 3.33782 0.00127643 0.00144526 2.21979 2.42412 0.00335354
6 1 3.21173 0.0877655 3.2949 -3.08352 1.08703 3.55013
7 1 3.36246 3.25344 0.021327 1.03607 -3.28304 -1.23057
8 1 3.40863 3.27922 3.34313 -1.81658 -3.90396 -2.44055
9 1 1.5919 1.59847 1.4908 -1.53661 -2.89876 4.00525
10 1 1.45644 1.65082 4.96926 -0.549175 -1.96878 0.832632
11 1 1.79641 4.8777 1.69738 0.986817 2.96341 0.390134
12 1 1.65803 4.93668 4.9801 2.6593 1.88688 2.06556
13 1 4.93203 1.61754 1.76744 2.17784 -2.35484 -0.743293
14 1 4.99043 1.68281 5.06064 -1.90898 2.8529 -1.46572
15 1 5.03446 4.99753 1.65472 -2.13856 -1.58758 1.656
16 1 4.90315 4.97687 4.93074 -1.09344 2.85235 -2.56551
ITEM: TIMESTEP
17000
ITEM: NUMBER OF ATOMS
16
ITEM: BOX BOUNDS xy xz yz pp pp pp
0.0000000000000000e+00 6.5999999999999996e+00 0.0000000000000000e+00
0.0000000000000000e+00 6.5999999999999996e+00 0.0000000000000000e+00
0.0000000000000000e+00 6.5999999999999996e+00 0.0000000000000000e+00
ITEM: ATOMS id type x y z fx fy fz
1 1 0.139849 6.49385 0.0361554 -3.98041 -2.33171 -2.03428
2 1 6.59504 6.54247 3.39735 1.44621 -3.08143 -2.6339
3 1 0.109048 3.40886 6.3867 -1.15892 -0.0715035 4.48738
4 1 6.56658 3.27331 3.21127 -0.662347 0.245866 2.20362
5 1 3.18085 0.0674342 6.54287 4.06479 0.0406065 2.96128
6 1 3.3535 6.69032 3.38232 -2.75735 -2.97796 -3.81896
7 1 3.40439 3.33165 6.65858 1.28816 -2.95109 2.44618
8 1 3.26845 3.36641 3.24533 2.00343 4.03489 3.45854
9 1 1.65429 1.41202 1.71188 -3.39515 2.86113 3.96376
10 1 1.48482 1.57489 4.97862 4.5526 4.26791 -3.07891
11 1 1.6575 4.78992 1.63473 -2.8223 -2.15546 -2.7967
12 1 1.59618 5.04624 4.89846 0.126609 1.06673 -3.1861
13 1 4.9215 1.64552 1.61865 1.46151 -0.508125 0.626127
14 1 4.94942 1.73123 4.93626 0.934755 0.515168 -3.51433
15 1 5.01937 5.00351 1.7776 -1.71796 -1.30125 2.25849
16 1 4.89921 5.02238 4.98324 0.61637 2.34624 -1.34221
ITEM: TIMESTEP
18000
ITEM: NUMBER OF ATOMS
16
ITEM: BOX BOUNDS xy xz yz pp pp pp
0.0000000000000000e+00 6.5999999999999996e+00 0.0000000000000000e+00
0.0000000000000000e+00 6.5999999999999996e+00 0.0000000000000000e+00
0.0000000000000000e+00 6.5999999999999996e+00 0.0000000000000000e+00
ITEM: ATOMS id type x y z fx fy fz
1 1 -0.0501228 0.12651 6.52092 4.32871 -4.70933 1.5026
2 1 -0.0564856 0.0744517 3.30424 3.18417 -1.21665 3.33354
3 1 0.00229007 3.29808 0.11372 2.88487 -0.800746 -2.15286
4 1 0.0184779 3.36385 3.33243 0.895538 2.21977 3.15427
5 1 3.39216 6.55728 6.59219 -2.27346 -0.36783 -0.615997
6 1 3.03031 6.41776 3.30071 -0.48235 -2.55275 -0.660627
7 1 3.38806 3.2465 6.45033 0.662377 -0.290224 -0.303006
8 1 3.29343 3.15564 3.21664 -0.184982 -1.07786 1.95281
9 1 1.69276 1.63629 1.63754 -1.15005 1.26491 -1.51391
10 1 1.65508 1.7902 4.98298 -1.48074 1.38831 0.0838103
11 1 1.63129 4.93594 1.53415 -1.0875 1.03015 -1.54769
12 1 1.74696 4.98463 4.97841 0.146277 0.865153 -0.781227
13 1 5.11774 1.60327 1.76756 -3.48966 2.2847 -2.21354
14 1 4.90231 1.73769 4.93628 -1.53588 2.15278 3.08501
15 1 4.94398 4.8981 1.759 1.91243 -3.69041 -0.967973
16 1 4.89175 4.97382 4.9729 -2.32975 3.50002 -2.35521
ITEM: TIMESTEP
19000
ITEM: NUMBER OF ATOMS
16
ITEM: BOX BOUNDS xy xz yz pp pp pp
0.0000000000000000e+00 6.5999999999999996e+00 0.0000000000000000e+00
0.0000000000000000e+00 6.5999999999999996e+00 0.0000000000000000e+00
0.0000000000000000e+00 6.5999999999999996e+00 0.0000000000000000e+00
ITEM: ATOMS id type x y z fx fy fz
1 1 6.49325 0.148957 0.0344856 -0.062504 1.13211 0.605738
2 1 6.6614 -0.00352394 3.38486 0.553222 -0.106695 -3.73571
3 1 -0.00145865 3.33888 6.54396 0.432266 -0.709237 -0.164548
4 1 -0.0387747 3.28125 3.32294 -2.78805 -1.02175 1.07675
5 1 3.21157 -0.0522409 6.56708 -2.76772 -0.257541 2.33193
6 1 3.31215 -0.00165966 3.21557 1.88652 -2.09068 3.63477
7 1 3.41252 3.27011 6.6197 1.7613 1.55187 -3.20815
8 1 3.27458 3.19651 3.32241 -0.386874 0.323863 0.423281
9 1 1.7356 1.6761 1.57871 0.245932 1.26162 -0.569216
10 1 1.60894 1.6322 4.83572 0.134965 -1.50997 -0.811625
11 1 1.64987 4.94409 1.74728 1.74688 1.13131 0.195294
12 1 1.62859 4.83087 4.98091 -3.60406 1.20744 1.45606
13 1 5.03346 1.54898 1.68239 2.53327 2.09484 1.38903
14 1 4.87923 1.68683 5.01407 -3.20669 -4.34701 -3.38564
15 1 5.00819 4.93376 1.68724 1.1295 1.38065 0.0147305
16 1 4.9309 5.16891 4.86268 2.39204 -0.040805 0.747312
ITEM: TIMESTEP
20000
ITEM: NUMBER OF ATOMS
16
ITEM: BOX BOUNDS xy xz yz pp pp pp
0.0000000000000000e+00 6.5999999999999996e+00 0.0000000000000000e+00
0.0000000000000000e+00 6.5999999999999996e+00 0.0000000000000000e+00
0.0000000000000000e+00 6.5999999999999996e+00 0.0000000000000000e+00
ITEM: ATOMS id type x y z fx fy fz
1 1 0.118174 6.56297 0.206365 -1.70138 -0.801314 -2.61163
2 1 6.49949 0.090578 3.33684 1.80769 -1.44048 0.73176
3 1 0.0989836 3.34639 0.0082756 3.93982 -2.64338 -2.62997
4 1 6.47917 3.27445 3.34482 -1.83447 -3.36523 -3.28837
5 1 3.25086 0.0635561 0.132035 1.69368 1.99445 -0.841205
6 1 3.14512 6.57896 3.44851 1.11302 2.08463 -0.900851
7 1 3.44474 3.18998 6.41391 -2.67213 2.2976 0.186988
8 1 3.30641 3.30033 3.18281 2.41022 2.51608 -1.15875
9 1 1.67178 1.84339 1.65917 -1.3716 2.47873 4.2633
10 1 1.62906 1.59705 5.01813 1.27916 -2.2296 3.01681
11 1 1.6565 5.05458 1.53028 -1.10178 -0.569415 1.23015
12 1 1.65136 4.82286 4.7287 -1.13343 0.464792 2.43191
13 1 4.97276 1.6249 1.64041 -0.972675 -0.583793 0.0123205
14 1 4.94329 1.56134 5.02878 -0.321651 0.366725 -1.09409
15 1 4.81738 4.87619 1.68934 0.322351 0.24577 3.13627
16 1 5.11493 5.01249 4.83161 -1.45683 -0.815565 -2.48465
ITEM: TIMESTEP
21000
ITEM: NUMBER OF ATOMS
16
ITEM: BOX BOUNDS xy xz yz pp pp pp
0.0000000000000000e+00 6.5999999999999996e+00 0.0000000000000000e+00
0.0000000000000000e+00 6.5999999999999996e+00 0.0000000000000000e+00
0.0000000000000000e+00 6.5999999999999996e+00 0.0000000000000000e+00
ITEM: ATOMS id type x y z fx fy fz
1 1 -0.0118431 0.0507378 0.0697417 0.672358 -0.38499 -2.83267
2 1 6.5739 -0.0587077 3.28964 0.93605 1.4958 -2.23383
3 1 -0.0135205 3.21981 -0.017382 -2.5694 -1.9381 3.09379
4 1 6.57652 3.32228 3.27493 1.37819 0.299949 -2.36021
5 1 3.41365 0.0901248 6.55149 -1.96589 2.46793 -0.578112
6 1 3.16596 -0.0428799 3.2445 -0.803039 4.31796 2.96825
7 1 3.35108 3.40301 6.63874 3.85069 -1.71663 -1.17818
8 1 3.39625 3.29057 3.27661 1.36735 -1.07263 -1.91577
9 1 1.62414 1.62982 1.64261 -2.52667 2.00228 3.01264
10 1 1.63796 1.65383 4.89772 -1.49843 -0.412638 -0.30498
11 1 1.65087 4.79897 1.81744 -0.986672 2.02344 -0.590555
12 1 1.65231 5.0086 4.95134 -2.4678 -1.25526 -0.0629348
13 1 4.83612 1.64889 1.64541 4.22834 -0.402779 -0.968425
14 1 5.05353 1.63224 4.88021 3.1061 -1.70658 -0.206931
15 1 5.02095 4.88935 1.65899 -2.29987 -1.53063 1.03833
16 1 4.87212 5.06336 4.97799 -0.421312 -2.18712 3.11959
ITEM: TIMESTEP
22000
ITEM: NUMBER OF ATOMS
16
ITEM: BOX BOUNDS xy xz yz pp pp pp
0.0000000000000000e+00 6.5999999999999996e+00 0.0000000000000000e+00
0.0000000000000000e+00 6.5999999999999996e+00 0.0000000000000000e+00
0.0000000000000000e+00 6.5999999999999996e+00 0.0000000000000000e+00
ITEM: ATOMS id type x y z fx fy fz
1 1 6.57793 6.39749 6.60635 2.66345 1.53326 -0.676455
2 1 6.54983 0.176026 3.30254 2.26153 -3.21723 0.661774
3 1 6.53575 3.09985 0.0332779 3.40903 -2.7989 1.75186
4 1 0.113421 3.34 3.34302 -0.326209 0.437561 -1.20725
5 1 3.19297 0.0835351 6.53002 3.58258 -2.86671 0.178451
6 1 3.1724 0.133391 3.26073 0.141792 1.65294 1.59926
7 1 3.35963 3.36834 0.0430453 -3.01829 3.5777 2.25263
8 1 3.41479 3.39311 3.30969 -1.25552 2.62076 0.413911
9 1 1.82435 1.63391 1.588 -0.427767 -1.1246 1.88689
10 1 1.65311 1.46482 4.876 -0.101437 2.76434 -2.15177
11 1 1.67893 4.97994 1.64298 -0.742882 -3.72501 -0.855841
12 1 1.53146 4.73524 4.90403 -3.21491 2.39621 -3.22619
13 1 4.94951 1.69774 1.68023 -1.33188 -0.49112 3.73666
14 1 4.93612 1.73191 5.01149 -1.41707 -2.09949 -3.55559
15 1 5.01211 4.96949 1.68959 0.740959 -0.640051 1.24785
16 1 4.89767 4.99521 4.97901 -0.963383 1.98033 -2.05621
ITEM: TIMESTEP
23000
ITEM: NUMBER OF ATOMS
16
ITEM: BOX BOUNDS xy xz yz pp pp pp
0.0000000000000000e+00 6.5999999999999996e+00 0.0000000000000000e+00
0.0000000000000000e+00 6.5999999999999996e+00 0.0000000000000000e+00
0.0000000000000000e+00 6.5999999999999996e+00 0.0000000000000000e+00
ITEM: ATOMS id type x y z fx fy fz
1 1 0.194687 6.55846 0.0572483 2.84924 1.2482 -2.67965
2 1 6.55486 0.0407694 3.35872 0.364253 -0.699007 -2.24566
3 1 0.0503274 3.34692 6.58136 1.9348 0.375646 3.15887
4 1 6.4469 3.22181 3.3574 0.248081 0.888473 1.45192
5 1 3.44834 0.036752 6.52957 0.0579397 -0.769226 1.47858
6 1 3.23713 0.0734719 3.22465 1.91786 2.99243 -3.80222
7 1 3.33255 3.27952 6.48879 -0.534731 2.30158 0.793967
8 1 3.27128 3.5043 3.33671 1.91213 -2.6287 0.634757
9 1 1.58105 1.58552 1.60223 -2.19506 1.15847 2.56109
10 1 1.69537 1.68253 4.94919 -2.28361 2.65472 2.15593
11 1 1.56302 4.95234 1.67019 -2.92825 -3.30349 0.812319
12 1 1.68983 4.98844 5.01234 2.6137 -1.53274 -0.770326
13 1 4.82864 1.55294 1.72701 1.34745 -3.67161 0.809282
14 1 5.03151 1.64189 4.95177 -2.39763 3.14002 -3.4323
15 1 4.88962 4.80875 1.60612 -1.83901 0.130483 -0.190297
16 1 4.98489 4.92558 4.94671 -1.06716 -2.28525 -0.736254
ITEM: TIMESTEP
24000
ITEM: NUMBER OF ATOMS
16
ITEM: BOX BOUNDS xy xz yz pp pp pp
0.0000000000000000e+00 6.5999999999999996e+00 0.0000000000000000e+00
0.0000000000000000e+00 6.5999999999999996e+00 0.0000000000000000e+00
0.0000000000000000e+00 6.5999999999999996e+00 0.0000000000000000e+00
ITEM: ATOMS id type x y z fx fy fz
1 1 6.50185 6.59781 0.225252 3.47406 -1.8339 1.46125
2 1 0.0236416 6.46576 3.20606 3.51474 2.4422 2.09735
3 1 0.00567952 3.31266 0.036264 -2.42862 -3.07209 -0.446493
4 1 0.158473 3.17006 3.39186 -0.373994 3.06016 0.298691
5 1 3.27282 0.0873074 6.54686 3.25769 1.23438 2.87787
6 1 3.32506 0.0393762 3.17622 2.66288 0.0287305 -1.90679
7 1 3.06101 3.41027 0.00611503 -1.83398 -1.11913 -0.157734
8 1 3.48604 3.23219 3.30983 2.23197 3.17195 -2.98797
9 1 1.74968 1.54589 1.45168 -1.66195 -3.74847 -2.37022
10 1 1.67634 1.63855 4.89897 3.11549 2.90256 -1.91214
11 1 1.7783 4.92741 1.72919 -4.37779 -4.28921 -2.59804
12 1 1.49075 5.00709 5.02815 -0.6318 2.97999 -1.62264
13 1 4.9837 1.77584 1.69349 -1.55084 0.345549 1.89783
14 1 5.08606 1.72383 4.92297 -4.21789 -1.49263 3.7702
15 1 4.809 4.92331 1.61183 -0.744394 -3.33521 -1.31454
16 1 4.79159 4.94266 4.96525 -0.435561 2.72513 2.91339
ITEM: TIMESTEP
25000
ITEM: NUMBER OF ATOMS
16
ITEM: BOX BOUNDS xy xz yz pp pp pp