BEGIN_CFG
 Size
    16
 Supercell
         6.600000      0.000000      0.000000
         0.000000      6.600000      0.000000
         0.000000      0.000000      6.600000
 AtomData:  id type       cartes_x      cartes_y      cartes_z           fx          fy          fz
             1    0       6.598190      6.599890      6.599920     0.007760    0.000197    0.001724
             2    0       6.599210      0.000966      3.300510     0.006272   -0.005003   -0.002128
             3    0       6.598880      3.300050      0.000111     0.006970    0.001335   -0.000603
             4    0       6.599920      3.299560      3.300060    -0.001366    0.005073    0.000522
             5    0       3.298870      6.599930      0.000430     0.000357   -0.004092   -0.004083
             6    0       3.300440      6.598850      3.299330    -0.003958    0.002523    0.004854
             7    0       3.300200      3.298590      6.599890    -0.003378    0.008240   -0.003108
             8    0       3.298990      3.298720      3.298740     0.005751    0.003808    0.006437
             9    0       1.650720      1.650850      1.650300    -0.003025   -0.003259    0.003387
            10    0       1.650330      1.650370      4.951870    -0.001763   -0.005984   -0.008532
            11    0       1.650630      4.950910      1.649350    -0.004447   -0.001830    0.001661
            12    0       1.651050      4.948770      4.949230    -0.000661    0.006706    0.001211
            13    0       4.950870      1.651020      1.649090    -0.002395   -0.005208    0.006954
            14    0       4.949980      1.650230      4.950570    -0.000478    0.001655   -0.006220
            15    0       4.950020      4.950070      1.649760     0.001505    0.001996    0.004542
            16    0       4.951700      4.951220      4.950850    -0.007144   -0.006156   -0.006617
 Energy
       -119.446710000000
 Feature   mindist	2.854553
END_CFG

BEGIN_CFG
 Size
    16
 Supercell
    6.6    0    0
    0    6.6    0
    0    0    6.6
 AtomData:  id type    cartes_x    cartes_y    cartes_z    fx    fy    fz
    1    0    0.0    0.0    0.0    -9.85323e-16    -9.85323e-16    -5.55112e-17
    2    0    0.0    0.0    3.3    -7.49401e-16    -7.49401e-16    -2.77556e-17
    3    0    0.0    3.3    0.0    -8.04912e-16    4.44089e-16    -4.16334e-16
    4    0    0.0    3.3    3.3    -7.35523e-16    -1.66533e-16    5.55112e-17
    5    0    3.3    0.0    0.0    4.44089e-16    -8.04912e-16    -4.16334e-16
    6    0    3.3    0.0    3.3    -1.66533e-16    -7.35523e-16    5.55112e-17
    7    0    3.3    3.3    0.0    1.38778e-16    1.38778e-16    -6.93889e-16
    8    0    3.3    3.3    3.3    1.11022e-16    1.11022e-16    -2.35922e-16
    9    0    1.65    1.65    1.65    -2.47025e-15    -2.47025e-15    -2.52576e-15
    10    0    1.65    1.65    4.95    -2.44249e-15    -2.44249e-15    3.46945e-15
    11    0    1.65    4.95    1.65    -2.55351e-15    3.38618e-15    -2.498e-15
    12    0    1.65    4.95    4.95    -2.52576e-15    2.80331e-15    2.83107e-15
    13    0    4.95    1.65    1.65    3.38618e-15    -2.53964e-15    -2.498e-15
    14    0    4.95    1.65    4.95    2.80331e-15    -2.52576e-15    2.83107e-15
    15    0    4.95    4.95    1.65    3.19189e-15    3.17801e-15    -3.44169e-15
    16    0    4.95    4.95    4.95    3.33067e-15    3.34455e-15    3.38618e-15
 Energy
    -119.44671999999997
END_CFG

BEGIN_CFG
 Size
    16
 Supercell
    6.6    0    0
    0    6.6    0
    0    0    6.6
 AtomData:  id type    cartes_x    cartes_y    cartes_z    fx    fy    fz
    1    0    6.59743    6.59986    6.59998    0.0124992    -0.00094935    0.0025159
    2    0    6.59872    0.001632    3.3009    0.00940462    -0.00797139    -0.00401755
    3    0    6.59885    3.29983    0.000368    0.00868469    0.00369322    -0.00292264
    4    0    6.59943    3.29951    3.29989    0.000492276    0.0071932    0.00238161
    5    0    3.29903    0.000496    0.000851    -0.00226965    -0.00955163    -0.00604361
    6    0    3.30055    6.59803    3.29928    -0.00573324    0.0046187    0.00590405
    7    0    3.30048    3.2978    6.59976    -0.00509417    0.0147158    -0.00382886
    8    0    3.29851    3.2979    3.29846    0.00662736    0.00588938    0.00793216
    9    0    1.6513    1.65122    1.65054    -0.00557663    -0.00492654    0.00477731
    10    0    1.6504    1.65049    4.95268    -0.00350141    -0.00722997    -0.0121456
    11    0    1.65099    4.95129    1.64865    -0.00667427    -0.00240483    0.00393409
    12    0    1.65139    4.94876    4.94876    -0.00202574    0.00727269    0.00167162
    13    0    4.9513    1.65145    1.64841    -0.00273598    -0.00851786    0.0126397
    14    0    4.94962    1.65031    4.95117    0.00133749    0.00269932    -0.0113799
    15    0    4.95005    4.94962    1.64973    0.00235145    0.00478375    0.00430332
    16    0    4.95193    4.95179    4.95055    -0.00778604    -0.00931451    -0.00572162
 Energy
    -119.44662
END_CFG

BEGIN_CFG
 Size
    16
 Supercell
    6.6    0    0
    0    6.6    0
    0    0    6.6
 AtomData:  id type    cartes_x    cartes_y    cartes_z    fx    fy    fz
    1    0    6.59639    6.59974    0.000136    0.0179152    -0.00123207    0.00228381
    2    0    6.59851    0.002727    3.30122    0.0115455    -0.0137534    -0.00488631
    3    0    6.59879    3.29983    0.000806    0.0101193    0.00471254    -0.00668097
    4    0    6.5989    3.29925    3.2994    0.0032918    0.0114227    0.00610232
    5    0    3.2991    0.000843    0.001252    -0.00465739    -0.013743    -0.00883615
    6    0    3.30059    6.59766    3.29912    -0.0069166    0.00382748    0.00810887
    7    0    3.30076    3.29722    6.59981    -0.00640497    0.0196461    -0.00573244
    8    0    3.29809    3.2969    3.29801    0.00669583    0.0100401    0.0105965
    9    0    1.65215    1.65137    1.65078    -0.00991446    -0.00547531    0.00512599
    10    0    1.65071    1.65045    4.95344    -0.00634569    -0.00731211    -0.0146383
    11    0    1.65162    4.95165    1.64766    -0.0102264    -0.00336307    0.00863792
    12    0    1.65154    4.94868    4.94859    -0.00391778    0.00738681    -0.000324887
    13    0    4.95155    1.65166    1.64802    -0.00150051    -0.00985921    0.0162605
    14    0    4.94939    1.65041    4.95171    0.00330361    0.00328409    -0.0150654
    15    0    4.95015    4.94955    1.65006    0.00361326    0.00550175    0.00238123
    16    0    4.95174    4.95205    4.94999    -0.00660067    -0.0110833    -0.00333274
 Energy
    -119.44649000000001
END_CFG

BEGIN_CFG
 Size
    16
 Supercell
    6.6    0    0
    0    6.6    0
    0    0    6.6
 AtomData:  id type    cartes_x    cartes_y    cartes_z    fx    fy    fz
    1    0    6.59345    0.001348    0.000417    0.0323902    -0.0129607    0.000268631
    2    0    6.59761    0.007688    3.30174    0.0254652    -0.04812    -0.00478326
    3    0    6.59719    3.29913    0.004947    0.0150136    0.0145099    -0.0328078
    4    0    6.59461    3.2959    3.29878    0.0213797    0.0413582    0.0233672
    5    0    3.29901    0.003373    0.004359    -0.00697376    -0.0326581    -0.0261054
    6    0    3.30082    6.59648    3.29867    -0.0149063    0.000792012    0.0180329
    7    0    3.30043    3.29652    6.59894    -0.00259641    0.0337119    -0.0143437
    8    0    3.29437    3.29535    3.29445    0.0111598    0.0185952    0.0281157
    9    0    1.65715    1.65305    1.65222    -0.0314585    -0.0139426    0.006372
    10    0    1.65336    1.64961    4.95692    -0.0211002    -0.00412127    -0.0256766
    11    0    1.65337    4.95188    1.64184    -0.0222952    0.00138043    0.0400641
    12    0    1.6534    4.94793    4.94979    -0.0203318    0.00825691    -0.0207276
    13    0    4.95348    1.65136    1.64859    0.000137527    -0.00989702    0.0163617
    14    0    4.94909    1.64845    4.95207    0.00814998    0.0168291    -0.0159666
    15    0    4.95146    4.94894    1.65072    0.00435591    0.00836052    -0.0086812
    16    0    4.95123    4.95299    4.94556    0.00161026    -0.0220946    0.0165098
 Energy
    -119.44524999999999
END_CFG

BEGIN_CFG
 Size
    16
 Supercell
    6.6    0    0
    0    6.6    0
    0    0    6.6
 AtomData:  id type    cartes_x    cartes_y    cartes_z    fx    fy    fz
    1    0    6.58566    0.007845    0.001283    0.0797758    -0.0338759    -0.0163488
    2    0    6.59345    0.011229    3.29922    0.0611307    -0.0990142    0.0126641
    3    0    6.59342    3.30467    0.017561    0.0268991    0.00562907    -0.113203
    4    0    6.58512    3.28451    3.29674    0.0699412    0.105898    0.0752778
    5    0    3.30199    0.011433    0.01116    -0.0316734    -0.0855697    -0.0601596
    6    0    3.29933    6.59566    3.29972    -0.0272951    -0.00524954    0.0294249
    7    0    3.29819    3.29447    0.000169    0.00953976    0.0710235    -0.0472416
    8    0    3.28884    3.29597    3.28846    0.00653306    0.0201271    0.0681287
    9    0    1.66685    1.65703    1.65423    -0.0686645    -0.0389996    0.023382
    10    0    1.65458    1.65058    4.96701    -0.0220802    -0.00439304    -0.0642958
    11    0    1.65243    4.95119    1.63084    -0.00300636    0.0230684    0.0917649
    12    0    1.65834    4.94885    4.94921    -0.0505028    0.00870104    -0.0429983
    13    0    4.9576    1.64978    1.65078    -0.00465774    -0.0207279    0.00549393
    14    0    4.95256    1.64231    4.94927    -0.0121676    0.0500064    0.00176718
    15    0    4.95963    4.94207    1.64763    -0.0414212    0.0407715    -0.0101757
    16    0    4.952    4.95239    4.93671    0.00764918    -0.0373951    0.0465192
 Energy
    -119.43802000000001
END_CFG

BEGIN_CFG
 Size
    16
 Supercell
    6.6    0    0
    0    6.6    0
    0    0    6.6
 AtomData:  id type    cartes_x    cartes_y    cartes_z    fx    fy    fz
    1    0    6.58918    0.004692    0.000457    0.0600004    -0.0229089    -0.00577956
    2    0    6.59493    0.009884    3.30038    0.0492182    -0.0763967    0.00315922
    3    0    6.59422    3.30186    0.012603    0.0237792    0.00889527    -0.0790535
    4    0    6.58981    3.29008    3.29824    0.044644    0.0753392    0.0512208
    5    0    3.3012    0.007923    0.009204    -0.022965    -0.0589076    -0.0526623
    6    0    3.30055    6.59573    3.29839    -0.0255284    -0.00179195    0.0317356
    7    0    3.29848    3.2965    6.59863    0.00567764    0.048167    -0.0313952
    8    0    3.29064    3.29572    3.2902    0.0129426    0.0192149    0.0537908
    9    0    1.66276    1.65513    1.65381    -0.0552321    -0.0266535    0.0102406
    10    0    1.6546    1.65013    4.96143    -0.023085    -0.00545808    -0.0403602
    11    0    1.65355    4.95164    1.63556    -0.017159    0.0123695    0.0725155
    12    0    1.65575    4.94825    4.95085    -0.0343836    0.010391    -0.0399379
    13    0    4.95523    1.65054    1.65013    0.00104893    -0.0150257    0.00936559
    14    0    4.95136    1.64397    4.95078    -0.00408514    0.0420061    -0.00699694
    15    0    4.95567    4.9449    1.64913    -0.0167552    0.0261426    -0.0112598
    16    0    4.9521    4.95305    4.94021    0.00188247    -0.0353832    0.0354172
 Energy
    -119.44194999999998
END_CFG

BEGIN_CFG
 Size
    16
 Supercell
    6.6    0    0
    0    6.6    0
    0    0    6.6
 AtomData:  id type    cartes_x    cartes_y    cartes_z    fx    fy    fz
    1    0    6.58156    0.012472    0.001889    0.101785    -0.0474508    -0.0260567
    2    0    6.59164    0.012696    3.29836    0.0698443    -0.122852    0.0204994
    3    0    6.59389    3.30831    0.023361    0.0278624    6.19194e-05    -0.151475
    4    0    6.57962    3.27876    3.29474    0.101736    0.138726    0.102658
    5    0    3.30292    0.015233    0.011521    -0.0414185    -0.116736    -0.0578783
    6    0    3.29621    6.59314    3.30183    -0.0212875    0.00405545    0.018876
    7    0    3.29937    3.29065    0.001668    0.00952478    0.101787    -0.0567258
    8    0    3.28761    3.29739    3.28832    -0.00552271    0.0110844    0.0724996
    9    0    1.67167    1.65847    1.65456    -0.0821042    -0.0472224    0.0336433
    10    0    1.65365    1.64996    4.97103    -0.0185518    0.00408133    -0.0814307
    11    0    1.65034    4.95147    1.626    0.0198373    0.0284459    0.107554
    12    0    1.66162    4.94964    4.94739    -0.0724617    0.0010879    -0.0422028
    13    0    4.96034    1.64886    1.65351    -0.0128915    -0.0228398    -0.00887409
    14    0    4.95318    1.64112    4.94689    -0.0194617    0.0551642    0.0188462
    15    0    4.96478    4.94068    1.64603    -0.0751693    0.0489323    -0.0119889
    16    0    4.95161    4.95115    4.9329    0.018279    -0.0363259    0.0620547
 Energy
    -119.43243000000002
END_CFG

BEGIN_CFG
 Size
    16
 Supercell
    6.6    0    0
    0    6.6    0
    0    0    6.6
 AtomData:  id type    cartes_x    cartes_y    cartes_z    fx    fy    fz
    1    0    6.58311    0.010991    0.001864    0.0934805    -0.0440309    -0.0239845
    2    0    6.59189    0.012269    3.29855    0.0693532    -0.115577    0.0189188
    3    0    6.59353    3.30693    0.021269    0.0279678    0.00323466    -0.137794
    4    0    6.58152    3.2805    3.29558    0.0910898    0.128719    0.0923656
    5    0    3.30255    0.014    0.011779    -0.0375229    -0.106139    -0.0608942
    6    0    3.29752    6.5941    3.30102    -0.0254532    0.000428002    0.0239178
    7    0    3.29876    3.29216    0.001195    0.0100112    0.0906888    -0.0542141
    8    0    3.28815    3.29685    3.28825    -0.00187452    0.0144244    0.0717387
    9    0    1.67008    1.65783    1.65438    -0.0776855    -0.04344    0.0315315
    10    0    1.65384    1.65033    4.96995    -0.0184075    0.000244283    -0.0774513
    11    0    1.65121    4.95138    1.62776    0.0113966    0.0260497    0.102233
    12    0    1.66051    4.94941    4.94801    -0.0656029    0.00420205    -0.0426657
    13    0    4.95947    1.64926    1.65232    -0.0101281    -0.021957    -0.00322454
    14    0    4.95315    1.64125    4.94762    -0.0185361    0.0544239    0.013172
    15    0    4.96324    4.94123    1.64643    -0.0638896    0.0455576    -0.0109963
    16    0    4.95147    4.95151    4.93403    0.0158011    -0.0368295    0.057347
 Energy
    -119.43444
END_CFG

BEGIN_CFG
 Size
    16
 Supercell
    6.6    0    0
    0    6.6    0
    0    0    6.6
 AtomData:  id type    cartes_x    cartes_y    cartes_z    fx    fy    fz
    1    0    6.57845    0.015094    0.001193    0.117865    -0.049721    -0.0254587
    2    0    6.59162    0.013489    3.29799    0.0709795    -0.137017    0.0206399
    3    0    6.59425    3.31133    0.027603    0.0258439    -0.0108234    -0.177361
    4    0    6.57587    3.27512    3.29377    0.120975    0.159127    0.119799
    5    0    3.30328    0.016949    0.010429    -0.0475079    -0.131329    -0.0501429
    6    0    3.29431    6.59045    3.30299    -0.0153583    0.017497    0.00918836
    7    0    3.29961    3.28827    0.003336    0.0133786    0.117804    -0.0655492
    8    0    3.28615    3.29965    3.28865    -0.00969143    -0.00280606    0.0754994
    9    0    1.67497    1.65964    1.65572    -0.0921962    -0.0560978    0.0350687
    10    0    1.65344    1.6491    4.9734    -0.0193179    0.0134502    -0.0886731
    11    0    1.64892    4.95093    1.62184    0.0319577    0.036336    0.121775
    12    0    1.664    4.95048    4.94618    -0.084787    -0.00753079    -0.0435463
    13    0    4.96186    1.64792    1.65631    -0.0174636    -0.0219457    -0.0230876
    14    0    4.95287    1.64021    4.94515    -0.0204921    0.0621793    0.0330955
    15    0    4.96745    4.94025    1.64456    -0.0930038    0.0515828    -0.0103739
    16    0    4.95295    4.95111    4.93086    0.0188187    -0.040705    0.0691268
 Energy
    -119.42798000000002
END_CFG

BEGIN_CFG
 Size
    16
 Supercell
    6.6    0    0
    0    6.6    0
    0    0    6.6
 AtomData:  id type    cartes_x    cartes_y    cartes_z    fx    fy    fz
    1    0    6.57287    0.022817    6.59959    0.147272    -0.0574356    -0.0207662
    2    0    6.58791    0.012776    3.29819    0.0804086    -0.161972    0.0175644
    3    0    6.59718    3.31908    0.038104    0.01053    -0.0401097    -0.25143
    4    0    6.56303    3.26611    3.28917    0.189542    0.204124    0.179787
    5    0    3.30514    0.021411    0.005562    -0.0563791    -0.166686    -0.0166955
    6    0    3.28546    6.58459    3.30496    0.0123747    0.0537344    -0.0200412
    7    0    3.2991    3.28169    0.006986    0.0343981    0.157101    -0.0897162
    8    0    3.28217    3.30897    3.28733    -0.0299948    -0.0517488    0.0936281
    9    0    1.68413    1.66617    1.6572    -0.11959    -0.0947119    0.0488592
    10    0    1.65648    1.64632    4.97955    -0.0435359    0.0413832    -0.117342
    11    0    1.64685    4.95097    1.61275    0.0549982    0.0629694    0.152325
    12    0    1.67177    4.95326    4.94471    -0.132626    -0.0324756    -0.0507429
    13    0    4.96763    1.64745    1.66796    -0.0349521    -0.0469802    -0.087825
    14    0    4.95118    1.63648    4.93853    -0.0093926    0.0792019    0.0901903
    15    0    4.97499    4.93344    1.64075    -0.138483    0.0952106    -0.00396461
    16    0    4.95411    4.94847    4.92867    0.0354305    -0.0416049    0.0761693
 Energy
    -119.41051999999999
END_CFG

BEGIN_CFG
 Size
    16
 Supercell
    6.6    0    0
    0    6.6    0
    0    0    6.6
 AtomData:  id type    cartes_x    cartes_y    cartes_z    fx    fy    fz
    1    0    6.57464    0.019183    0.000921    0.136264    -0.0536294    -0.0258721
    2    0    6.5908    0.013388    3.29817    0.0734865    -0.150394    0.0199909
    3    0    6.59529    3.31539    0.032638    0.0210619    -0.0258142    -0.211954
    4    0    6.56953    3.27043    3.29179    0.154309    0.182688    0.146598
    5    0    3.30359    0.019068    0.007412    -0.0519591    -0.149097    -0.0291476
    6    0    3.29071    6.58673    3.30482    -0.00339986    0.0382834    -0.0106946
    7    0    3.29985    3.28497    0.005717    0.020444    0.138018    -0.0799439
    8    0    3.28396    3.30391    3.28793    -0.0184862    -0.0270282    0.0853742
    9    0    1.6794    1.66281    1.65653    -0.104138    -0.0748508    0.0405066
    10    0    1.65433    1.64813    4.97614    -0.0291182    0.0268377    -0.100616
    11    0    1.64747    4.951    1.61682    0.046784    0.0488125    0.139751
    12    0    1.66787    4.95216    4.94565    -0.106138    -0.021237    -0.0486566
    13    0    4.96484    1.64723    1.66131    -0.0280184    -0.0310237    -0.0504034
    14    0    4.9515    1.63839    4.94193    -0.0146833    0.0706625    0.0585978
    15    0    4.97156    4.93751    1.6429    -0.118501    0.068947    -0.00849355
    16    0    4.95465    4.9497    4.92931    0.0220926    -0.0411746    0.0749632
 Energy
    -119.42026
END_CFG

BEGIN_CFG
 Size
    16
 Supercell
    6.6    0    0
    0    6.6    0
    0    0    6.6
 AtomData:  id type    cartes_x    cartes_y    cartes_z    fx    fy    fz
    1    0    6.56982    0.028399    6.59708    0.170366    -0.063634    -0.0119779
    2    0    6.58441    0.012687    3.2981    0.0907832    -0.1887    0.0138642
    3    0    6.59972    3.32462    0.044951    -0.00952365    -0.0607039    -0.303132
    4    0    6.55244    3.25841    3.2853    0.247819    0.24714    0.224814
    5    0    3.30901    0.02609    0.001895    -0.0717097    -0.195389    0.00999804
    6    0    3.27922    6.57991    3.30653    0.0312532    0.0808967    -0.0428687
    7    0    3.29529    3.27761    0.010755    0.0658722    0.183525    -0.111955
    8    0    3.2798    3.31556    3.28607    -0.0508028    -0.0867529    0.110647
    9    0    1.69127    1.67055    1.65852    -0.148264    -0.122911    0.052661
    10    0    1.66206    1.64355    4.98191    -0.0761955    0.0612942    -0.128405
    11    0    1.646    4.95133    1.60601    0.0573076    0.0824598    0.17264
    12    0    1.67948    4.95424    4.94269    -0.186821    -0.0463739    -0.0529999
    13    0    4.97076    1.64874    1.679    -0.038523    -0.071877    -0.149506
    14    0    4.95102    1.63364    4.93407    0.0035732    0.0917973    0.139382
    15    0    4.97772    4.92898    1.63851    -0.153634    0.129159    -0.00133429
    16    0    4.95198    4.94567    4.92862    0.0684986    -0.03993    0.0781725
 Energy
    -119.39153
END_CFG

BEGIN_CFG
 Size
    16
 Supercell
    6.6    0    0
    0    6.6    0
    0    0    6.6
 AtomData:  id type    cartes_x    cartes_y    cartes_z    fx    fy    fz
    1    0    6.56872    0.03146    6.59504    0.183177    -0.0689409    -0.00284114
    2    0    6.58268    0.013112    3.29836    0.0960131    -0.20765    0.0087377
    3    0    0.001184    3.32724    0.047861    -0.0219055    -0.0688559    -0.323504
    4    0    6.54633    3.25344    3.28397    0.278455    0.275982    0.241761
    5    0    3.31187    0.028255    6.59943    -0.0831315    -0.210597    0.0264437
    6    0    3.27632    6.57829    3.30717    0.0402273    0.0897484    -0.0551531
    7    0    3.29251    3.27531    0.012834    0.0855956    0.198844    -0.121433
    8    0    3.27787    3.31865    3.28582    -0.0590904    -0.100756    0.116596
    9    0    1.69535    1.67237    1.6596    -0.166089    -0.133886    0.0506201
    10    0    1.66569    1.64269    4.98269    -0.0981991    0.0666823    -0.130762
    11    0    1.64553    4.95233    1.60239    0.0538572    0.0879004    0.18159
    12    0    1.68402    4.95409    4.94053    -0.217115    -0.04875    -0.0499653
    13    0    4.97237    1.64957    1.68461    -0.0384133    -0.0844821    -0.182315
    14    0    4.95045    1.6319    4.93188    0.0147323    0.100465    0.165539
    15    0    4.97781    4.92689    1.63805    -0.153701    0.145498    -0.00050877
    16    0    4.95128    4.94439    4.92977    0.0855871    -0.0412015    0.0751964
 Energy
    -119.38007999999999
END_CFG

BEGIN_CFG
 Size
    16
 Supercell
    6.6    0    0
    0    6.6    0
    0    0    6.6
 AtomData:  id type    cartes_x    cartes_y    cartes_z    fx    fy    fz
    1    0    6.56818    0.033813    6.59342    0.193865    -0.073557    0.00381632
    2    0    6.58133    0.013539    3.29897    0.100293    -0.226288    0.00438702
    3    0    0.003189    3.32985    0.050731    -0.0387736    -0.0764727    -0.345101
    4    0    6.54058    3.24856    3.28191    0.3078    0.304913    0.262514
    5    0    3.31528    0.0308    6.59633    -0.0957008    -0.229867    0.0436058
    6    0    3.27394    6.57795    3.30686    0.0472287    0.0925611    -0.0642739
    7    0    3.28944    3.27232    0.014698    0.108409    0.219171    -0.127705
    8    0    3.27615    3.3211    3.28599    -0.0679606    -0.109496    0.118947
    9    0    1.69866    1.67355    1.66027    -0.180241    -0.144295    0.0525304
    10    0    1.66906    1.64296    4.9844    -0.122412    0.065708    -0.138604
    11    0    1.64521    4.95275    1.59901    0.0502624    0.0950877    0.188083
    12    0    1.68868    4.95392    4.93762    -0.249371    -0.0477164    -0.0437587
    13    0    4.97425    1.64995    1.69016    -0.0397969    -0.0959521    -0.214567
    14    0    4.94892    1.63112    4.93013    0.0315823    0.104875    0.190115
    15    0    4.97757    4.92459    1.63852    -0.152257    0.161701    -0.00366413
    16    0    4.94957    4.94322    4.931    0.107072    -0.0403732    0.0736751
 Energy
    -119.36755000000002
END_CFG

BEGIN_CFG
 Size
    16
 Supercell
    6.6    0    0
    0    6.6    0
    0    0    6.6
 AtomData:  id type    cartes_x    cartes_y    cartes_z    fx    fy    fz
    1    0    6.56738    0.035773    6.59227    0.203265    -0.0757961    0.00706567
    2    0    6.58023    0.014354    3.29935    0.10491    -0.247703    0.00287204
    3    0    0.004867    3.33251    0.052319    -0.0523328    -0.0853793    -0.36328
    4    0    6.53573    3.24336    3.27933    0.333011    0.335986    0.284114
    5    0    3.31825    0.033491    6.594    -0.105688    -0.253439    0.0603429
    6    0    3.27219    6.5786    3.3071    0.0515262    0.0893191    -0.0755207
    7    0    3.28723    3.26855    0.016632    0.126439    0.244706    -0.132611
    8    0    3.27398    3.32363    3.28647    -0.0735917    -0.114757    0.119061
    9    0    1.70168    1.67424    1.6611    -0.194379    -0.152621    0.0544946
    10    0    1.67324    1.64362    4.98682    -0.152943    0.0661966    -0.148601
    11    0    1.64364    4.95281    1.59534    0.0536625    0.102244    0.197311
    12    0    1.69388    4.95507    4.93542    -0.283428    -0.0514654    -0.0411309
    13    0    4.97581    1.65044    1.69523    -0.0399478    -0.107297    -0.246283
    14    0    4.94651    1.62999    4.92754    0.0552888    0.109114    0.216833
    15    0    4.97757    4.92217    1.6392    -0.155613    0.177907    -0.00755844
    16    0    4.94784    4.94138    4.93188    0.12982    -0.0370154    0.0728906
 Energy
    -119.35343000000002
END_CFG

BEGIN_CFG
 Size
    16
 Supercell
    6.6    0    0
    0    6.6    0
    0    0    6.6
 AtomData:  id type    cartes_x    cartes_y    cartes_z    fx    fy    fz
    1    0    6.56796    0.039056    6.59114    0.205894    -0.0785361    0.00844787
    2    0    6.5781    0.015671    3.2992    0.114182    -0.279041    0.00493993
    3    0    0.007944    3.33699    0.054448    -0.0798887    -0.102146    -0.389587
    4    0    6.52998    3.23538    3.27553    0.358529    0.382573    0.31608
    5    0    3.32162    0.036285    6.59051    -0.111414    -0.280179    0.083496
    6    0    3.27049    6.57967    3.30698    0.054611    0.0823217    -0.0894134
    7    0    3.28236    3.26418    0.019986    0.16218    0.274602    -0.143989
    8    0    3.26974    3.32706    3.28723    -0.0716994    -0.120506    0.122274
    9    0    1.70604    1.67464    1.66245    -0.216826    -0.1594    0.0560864
    10    0    1.67861    1.64521    4.98989    -0.191238    0.0619405    -0.162052
    11    0    1.6402    4.95379    1.58944    0.065346    0.107386    0.215614
    12    0    1.70194    4.95649    4.93187    -0.33176    -0.0532798    -0.0402344
    13    0    4.9766    1.65226    1.70155    -0.034656    -0.129086    -0.288715
    14    0    4.94355    1.62633    4.92412    0.0845607    0.127233    0.253648
    15    0    4.97798    4.91777    1.64081    -0.164814    0.206478    -0.0117235
    16    0    4.94689    4.93923    4.93486    0.156992    -0.0403597    0.0651286
 Energy
    -119.33157000000003
END_CFG

BEGIN_CFG
 Size
    16
 Supercell
    6.6    0    0
    0    6.6    0
    0    0    6.6
 AtomData:  id type    cartes_x    cartes_y    cartes_z    fx    fy    fz
    1    0    6.56965    0.043878    6.58827    0.20544    -0.0858585    0.0179066
    2    0    6.57435    0.017914    3.29848    0.129177    -0.313302    0.00545273
    3    0    0.012098    3.3428    0.056349    -0.113515    -0.120904    -0.41407
    4    0    6.52504    3.22822    3.27161    0.376043    0.42832    0.348773
    5    0    3.3259    0.038184    6.58683    -0.117978    -0.301966    0.104164
    6    0    3.26888    6.57978    3.30549    0.0553782    0.0768561    -0.0951686
    7    0    3.27653    3.26002    0.023164    0.203881    0.300498    -0.15716
    8    0    3.26428    3.32921    3.2872    -0.0605834    -0.123852    0.131143
    9    0    1.71146    1.67483    1.66566    -0.241946    -0.161086    0.0474333
    10    0    1.68211    1.64736    4.99272    -0.215906    0.0556328    -0.170712
    11    0    1.63658    4.9568    1.58403    0.078489    0.103799    0.232707
    12    0    1.70908    4.95837    4.92878    -0.376005    -0.0548425    -0.0416755
    13    0    4.97821    1.65416    1.70701    -0.0309057    -0.15149    -0.326304
    14    0    4.94187    1.61985    4.92185    0.100994    0.159136    0.283263
    15    0    4.97863    4.91243    1.64363    -0.17573    0.238145    -0.0205564
    16    0    4.94532    4.93619    4.93894    0.183165    -0.0490848    0.0548046
 Energy
    -119.30779999999999
END_CFG

BEGIN_CFG
 Size
    16
 Supercell
    6.6    0    0
    0    6.6    0
    0    0    6.6
 AtomData:  id type    cartes_x    cartes_y    cartes_z    fx    fy    fz
    1    0    6.57121    0.048614    6.58303    0.210056    -0.0841021    0.0424098
    2    0    6.56888    0.020599    3.29842    0.158219    -0.358017    -0.00354182
    3    0    0.01731    3.35237    0.05972    -0.158669    -0.159596    -0.447958
    4    0    6.52116    3.2194    3.26682    0.384946    0.484661    0.390765
    5    0    3.33187    0.042286    6.5808    -0.13241    -0.328351    0.138385
    6    0    3.26916    6.58132    3.30353    0.0434097    0.0589608    -0.106906
    7    0    3.26808    3.25809    0.027076    0.260524    0.318622    -0.17505
    8    0    3.2568    3.33031    3.28649    -0.0381772    -0.119102    0.146106
    9    0    1.71771    1.67382    1.67118    -0.274752    -0.155917    0.028504
    10    0    1.68609    1.64725    4.99696    -0.245925    0.0645807    -0.179117
    11    0    1.63345    4.96123    1.57784    0.089319    0.0952016    0.25299
    12    0    1.71749    4.96121    4.92477    -0.430574    -0.0664354    -0.0438142
    13    0    4.97941    1.65427    1.71383    -0.0212232    -0.162528    -0.37976
    14    0    4.9399    1.60927    4.91778    0.122017    0.22316    0.329006
    15    0    4.97946    4.90592    1.64705    -0.186478    0.268071    -0.0277162
    16    0    4.94202    4.93404    4.9447    0.219717    -0.0792077    0.0356966
 Energy
    -119.27385
END_CFG

BEGIN_CFG
 Size
    16
 Supercell
    6.6    0    0
    0    6.6    0
    0    0    6.6
 AtomData:  id type    cartes_x    cartes_y    cartes_z    fx    fy    fz