ITEM: TIMESTEP
0
ITEM: NUMBER OF ATOMS
16
ITEM: BOX BOUNDS xy xz yz pp pp pp
0.0000000000000000e+00 6.5999999999999996e+00 0.0000000000000000e+00
0.0000000000000000e+00 6.5999999999999996e+00 0.0000000000000000e+00
0.0000000000000000e+00 6.5999999999999996e+00 0.0000000000000000e+00
ITEM: ATOMS id type x y z fx fy fz
1 1 0 0 0 -2.35897 -0.253686 0.0521317
2 1 0 0 3.3 -1.51942 0.402077 -1.98896
3 1 0 3.3 0 -2.3877 -3.10209 2.60662
4 1 0 3.3 3.3 -1.09572 -0.341442 -0.439181
5 1 3.3 0 0 -3.52657 -2.61998 2.19152
6 1 3.3 0 3.3 1.76933 -0.724476 3.60202
7 1 3.3 3.3 0 -3.60434 2.42381 -0.0942724
8 1 3.3 3.3 3.3 -3.26782 -0.290637 -1.37116
9 1 1.65 1.65 1.65 0.942536 -1.17235 1.93972
10 1 1.65 1.65 4.95 -1.63381 1.83097 1.22436
11 1 1.65 4.95 1.65 1.21732 1.12886 -3.33872
12 1 1.65 4.95 4.95 3.93225 -3.81672 -1.34598
13 1 4.95 1.65 1.65 3.28032 0.768317 -2.06498
14 1 4.95 1.65 4.95 2.74356 2.15672 -3.58512
15 1 4.95 4.95 1.65 2.36741 0.577136 2.39282
16 1 4.95 4.95 4.95 3.14162 3.03349 0.219182
ITEM: TIMESTEP
1000
ITEM: NUMBER OF ATOMS
16
ITEM: BOX BOUNDS xy xz yz pp pp pp
0.0000000000000000e+00 6.5999999999999996e+00 0.0000000000000000e+00
0.0000000000000000e+00 6.5999999999999996e+00 0.0000000000000000e+00
0.0000000000000000e+00 6.5999999999999996e+00 0.0000000000000000e+00
ITEM: ATOMS id type x y z fx fy fz
1 1 0.0923996 6.42881 6.6735 -0.114571 2.43509 0.433042
2 1 -0.0207564 6.56313 3.25546 -3.1517 -1.54947 -0.936912
3 1 -0.0298237 3.283 6.61588 3.51143 -3.15737 -1.23402
4 1 -0.0936215 3.2707 3.30667 1.61593 4.24703 -1.87994
5 1 3.43132 0.0226843 6.63212 -3.75607 2.43928 -2.2027
6 1 3.31487 6.63569 3.40867 3.60264 -2.71707 -0.283162
7 1 3.30297 3.37802 0.0453827 -3.62602 -2.6155 -1.45312
8 1 3.25674 3.3912 3.37232 -3.13697 -1.62955 3.13539
9 1 1.72878 1.65414 1.5885 2.11869 -3.07451 0.271936
10 1 1.74341 1.67315 4.91256 0.799647 4.03605 0.4906
11 1 1.5081 4.92737 1.72184 1.32231 1.55922 2.05013
12 1 1.58608 4.95344 5.00924 -3.60446 -3.32561 1.20109
13 1 4.96813 1.82335 1.63338 0.625815 1.52174 -0.118842
14 1 5.07345 1.54036 4.87726 -1.97104 2.61155 -3.03183
15 1 4.82191 4.95258 1.5566 3.49467 1.50293 4.17624
16 1 4.91604 4.90238 4.79062 2.2697 -2.28382 -0.617899
ITEM: TIMESTEP
2000
ITEM: NUMBER OF ATOMS
16
ITEM: BOX BOUNDS xy xz yz pp pp pp
0.0000000000000000e+00 6.5999999999999996e+00 0.0000000000000000e+00
0.0000000000000000e+00 6.5999999999999996e+00 0.0000000000000000e+00
0.0000000000000000e+00 6.5999999999999996e+00 0.0000000000000000e+00
ITEM: ATOMS id type x y z fx fy fz
1 1 0.0482843 6.62346 0.0510158 -1.12669 -1.21935 -0.904068
2 1 0.0602272 6.65442 3.24661 -0.1546 1.47502 -0.0953526
3 1 0.0725079 3.32127 0.137781 0.533443 -2.35182 -4.02792
4 1 0.067895 3.23154 3.44025 0.392436 -0.970889 0.3894
5 1 3.26245 0.0286699 6.4319 0.280324 0.937346 -3.22219
6 1 3.31603 0.00670876 3.24378 0.182363 0.114257 1.59512
7 1 3.17598 3.33007 0.0198712 -2.88258 -3.01336 -3.46589
8 1 3.31683 3.27956 3.21642 -0.185263 -0.421879 3.02483
9 1 1.62484 1.60394 1.71786 2.02149 0.212903 0.425138
10 1 1.73521 1.68458 5.05561 -3.12376 -2.04229 -2.94606
11 1 1.67675 4.96072 1.65671 2.32361 3.44203 3.08487
12 1 1.64682 5.02109 4.97088 0.0637713 -3.84801 2.1648
13 1 4.77291 1.66538 1.72903 1.24585 1.20462 -2.87303
14 1 4.93322 1.61334 4.9897 -0.312442 4.12117 1.70171
15 1 4.90751 4.89663 1.5165 -2.44395 3.01545 0.916091
16 1 4.98252 4.87861 4.77609 3.18599 -0.655204 4.23255
ITEM: TIMESTEP
3000
ITEM: NUMBER OF ATOMS
16
ITEM: BOX BOUNDS xy xz yz pp pp pp
0.0000000000000000e+00 6.5999999999999996e+00 0.0000000000000000e+00
0.0000000000000000e+00 6.5999999999999996e+00 0.0000000000000000e+00
0.0000000000000000e+00 6.5999999999999996e+00 0.0000000000000000e+00
ITEM: ATOMS id type x y z fx fy fz
1 1 6.58107 6.5791 0.10675 -2.13425 -0.610564 3.04807
2 1 0.00685847 0.135363 3.39408 -3.65482 -1.10731 -2.43605
3 1 6.5214 3.33594 6.57746 2.81473 -1.15951 -0.773783
4 1 0.0491564 3.35924 3.22346 -1.19524 -0.81946 3.41876
5 1 3.33384 0.0336333 6.53319 -0.859272 -1.02192 -1.7262
6 1 3.23325 6.57689 3.30141 3.19411 -0.672349 0.890479
7 1 3.25188 3.29221 0.0587929 1.39674 -0.991628 -1.05976
8 1 3.34186 3.24304 3.26967 0.246157 2.28605 -0.609705
9 1 1.6896 1.54755 1.58504 -0.448593 1.18867 -0.17711
10 1 1.73028 1.66452 4.88519 3.41293 3.26315 -0.735033
11 1 1.62777 5.01315 1.60024 -1.03825 -2.42114 -1.20832
12 1 1.55493 4.92718 5.05414 -1.7974 -0.832004 0.841455
13 1 5.14172 1.53447 1.65177 -2.20712 2.07416 0.166044
14 1 4.97698 1.74232 4.93599 0.659291 -2.43105 1.23833
15 1 4.93091 4.82157 1.66334 -2.35629 4.94273 -3.14125
16 1 4.8285 4.99383 4.95948 3.96728 -1.68783 2.26407
ITEM: TIMESTEP
4000
ITEM: NUMBER OF ATOMS
16
ITEM: BOX BOUNDS xy xz yz pp pp pp
0.0000000000000000e+00 6.5999999999999996e+00 0.0000000000000000e+00
0.0000000000000000e+00 6.5999999999999996e+00 0.0000000000000000e+00
0.0000000000000000e+00 6.5999999999999996e+00 0.0000000000000000e+00
ITEM: ATOMS id type x y z fx fy fz
1 1 6.58998 6.45336 6.611 0.350221 0.442779 -4.03483
2 1 6.58418 6.63402 3.25319 0.345811 -1.36531 0.2881
3 1 6.6562 3.14282 0.0863523 -0.624587 1.01051 2.73451
4 1 0.0573263 3.36827 3.34261 1.18894 -0.865766 1.13853
5 1 3.27381 0.0178909 0.0740248 -0.0279383 0.777774 2.89986
6 1 3.2635 0.0536651 3.31316 1.30082 -0.534226 3.21109
7 1 3.31943 3.19344 0.0898109 -0.171778 -1.54252 -3.29067
8 1 3.33251 3.33309 3.3341 3.11912 0.4019 0.838621
9 1 1.55196 1.63755 1.56055 2.64204 3.05001 -2.01392
10 1 1.72872 1.59562 4.79861 -0.628781 1.83601 0.3308
11 1 1.52089 4.95459 1.81863 0.945182 0.63041 0.204383
12 1 1.68979 4.91401 4.99289 -0.877508 2.1332 -1.33499
13 1 4.89312 1.63303 1.44437 -2.89104 -3.7591 -1.78844
14 1 5.14082 1.82617 4.83448 0.177098 -0.407994 -3.28087
15 1 4.80778 4.84973 1.72025 -2.94819 1.15682 0.425621
16 1 4.98996 5.19276 4.92596 -1.89941 -2.9645 3.67222
ITEM: TIMESTEP
5000
ITEM: NUMBER OF ATOMS
16
ITEM: BOX BOUNDS xy xz yz pp pp pp
0.0000000000000000e+00 6.5999999999999996e+00 0.0000000000000000e+00
0.0000000000000000e+00 6.5999999999999996e+00 0.0000000000000000e+00
0.0000000000000000e+00 6.5999999999999996e+00 0.0000000000000000e+00
ITEM: ATOMS id type x y z fx fy fz
1 1 6.68224 6.65428 0.00362884 -3.14284 -3.80556 0.787051
2 1 6.43668 0.0783989 3.33809 0.941543 2.77822 -2.13697
3 1 0.153487 3.19501 6.65233 -0.943486 -1.2678 -2.84626
4 1 6.46663 3.25012 3.26324 -0.048379 -2.3315 4.3811
5 1 3.35969 6.67787 0.0274243 0.879646 1.56083 1.78116
6 1 3.2408 6.49539 3.30178 3.74956 0.830498 -0.70006
7 1 3.37934 3.23653 6.62387 -2.92508 -2.21131 3.46222
8 1 3.23614 3.3812 3.3418 -1.27454 -2.61138 -1.31481
9 1 1.76227 1.46623 1.6854 2.53281 -1.61638 2.42651
10 1 1.67139 1.61871 5.05294 -1.92234 4.23884 -2.90006
11 1 1.58611 4.87249 1.56478 3.36541 0.456854 -1.83771
12 1 1.69234 4.91868 4.86604 -3.62206 3.47085 -1.28898
13 1 5.0457 1.73569 1.53793 3.01611 -3.41872 0.221202
14 1 4.96863 1.79439 4.92685 -1.57793 0.736947 0.817501
15 1 4.94975 5.0188 1.57781 -0.581916 3.43562 -1.73711
16 1 4.76882 5.00622 5.03606 1.5535 -0.246011 0.88521
ITEM: TIMESTEP
6000
ITEM: NUMBER OF ATOMS
16
ITEM: BOX BOUNDS xy xz yz pp pp pp
0.0000000000000000e+00 6.5999999999999996e+00 0.0000000000000000e+00
0.0000000000000000e+00 6.5999999999999996e+00 0.0000000000000000e+00
0.0000000000000000e+00 6.5999999999999996e+00 0.0000000000000000e+00
ITEM: ATOMS id type x y z fx fy fz
1 1 6.52768 0.106946 0.131496 2.44852 -2.35486 -2.85256
2 1 6.57579 -0.0900234 3.18362 -1.14671 0.865305 -3.15526
3 1 -0.039581 3.23855 0.0333529 1.45866 -2.0898 1.2538
4 1 0.127844 3.42646 3.30539 -2.79075 -4.53749 -1.95674
5 1 3.30107 6.58955 6.53521 0.869647 0.821564 -1.12903
6 1 3.19917 6.55623 3.22767 2.92904 -1.09703 -0.178193
7 1 3.32281 3.19478 6.46325 2.64444 0.135147 4.39515
8 1 3.35844 3.25098 3.36899 -0.38898 4.12311 -1.92126
9 1 1.73261 1.63471 1.65675 1.43957 0.538011 3.94518
10 1 1.59398 1.6569 4.95141 -4.37097 2.33559 2.7633
11 1 1.68832 4.97533 1.75455 -1.23757 0.189317 -1.88794
12 1 1.55779 4.94015 5.02474 -0.75561 -1.20626 -2.58378
13 1 4.8617 1.79884 1.66946 1.1561 -3.72464 0.748211
14 1 4.99016 1.51389 4.80549 -1.79312 3.73346 -0.145253
15 1 4.94748 5.02997 1.68802 -2.70863 3.09209 1.95413
16 1 5.05473 4.97674 5.0006 2.24638 -0.823518 0.750244
ITEM: TIMESTEP
7000
ITEM: NUMBER OF ATOMS
16
ITEM: BOX BOUNDS xy xz yz pp pp pp
0.0000000000000000e+00 6.5999999999999996e+00 0.0000000000000000e+00
0.0000000000000000e+00 6.5999999999999996e+00 0.0000000000000000e+00
0.0000000000000000e+00 6.5999999999999996e+00 0.0000000000000000e+00
ITEM: ATOMS id type x y z fx fy fz
1 1 0.0156869 -0.0251913 6.60496 0.954451 -2.67753 1.9143
2 1 0.170535 6.64651 3.24389 1.66515 -3.26692 -0.284178
3 1 6.59013 3.33196 6.48129 -1.48839 0.396656 0.178567
4 1 0.0542328 3.17482 3.24713 -0.106542 -0.32668 0.631796
5 1 3.26347 6.47641 6.49701 -1.44231 3.99787 0.491927
6 1 3.37769 0.0648398 3.22207 1.74741 0.11242 0.814925
7 1 3.28127 3.33022 0.0780153 -3.71221 1.33821 -2.17594
8 1 3.24057 3.3438 3.38401 3.12854 3.55313 -4.21839
9 1 1.55529 1.67633 1.76708 1.85666 2.84015 1.92604
10 1 1.75315 1.48703 5.0428 0.962215 3.5719 3.02641
11 1 1.53712 4.92836 1.56481 -0.0968213 0.849944 0.848475
12 1 1.60669 4.82995 5.02603 2.95223 -0.794082 -3.42057
13 1 4.92524 1.73391 1.65421 -4.6733 0.34974 -1.10542
14 1 4.99293 1.74054 4.92734 3.07499 -3.21903 2.0156
15 1 4.93112 5.08826 1.67839 -4.8199 -4.73628 -3.71976
16 1 4.90489 4.97225 4.98096 -0.00216531 -1.98951 3.07622
ITEM: TIMESTEP
8000
ITEM: NUMBER OF ATOMS
16
ITEM: BOX BOUNDS xy xz yz pp pp pp
0.0000000000000000e+00 6.5999999999999996e+00 0.0000000000000000e+00
0.0000000000000000e+00 6.5999999999999996e+00 0.0000000000000000e+00
0.0000000000000000e+00 6.5999999999999996e+00 0.0000000000000000e+00
ITEM: ATOMS id type x y z fx fy fz
1 1 6.57993 0.0780918 6.39241 -0.0532071 0.570578 1.87323
2 1 0.0413824 0.0419668 3.21825 1.33922 0.303701 -2.93514
3 1 0.15497 3.30536 0.0627648 0.669687 2.26494 -3.95251
4 1 6.60561 3.22193 3.27462 -0.435458 -2.18483 2.84867
5 1 3.2784 -0.0218795 0.0545548 2.49399 1.95036 1.74459
6 1 3.23262 6.53624 3.40469 -0.494928 -1.57211 -1.1816
7 1 3.34987 3.31574 0.012519 -2.01118 -2.50482 0.390774
8 1 3.20467 3.36252 3.18105 2.31195 0.0574733 2.35773
9 1 1.74079 1.68171 1.77149 -2.28899 3.72976 -0.582034
10 1 1.77393 1.71913 5.11491 -2.50112 2.26452 -0.688903
11 1 1.45131 5.08627 1.73069 -1.26833 -0.471113 -0.601193
12 1 1.71799 4.98608 4.94642 2.44694 -1.42305 2.45813
13 1 4.89889 1.71829 1.77383 2.75886 -1.97369 -4.67858
14 1 4.96069 1.53618 5.02298 -1.32576 0.259646 3.55593
15 1 4.74105 4.92795 1.46876 -1.76262 -0.618547 2.71082
16 1 5.06787 4.70444 4.77006 0.12094 -0.65282 -3.3199
ITEM: TIMESTEP
9000
ITEM: NUMBER OF ATOMS
16
ITEM: BOX BOUNDS xy xz yz pp pp pp
0.0000000000000000e+00 6.5999999999999996e+00 0.0000000000000000e+00
0.0000000000000000e+00 6.5999999999999996e+00 0.0000000000000000e+00
0.0000000000000000e+00 6.5999999999999996e+00 0.0000000000000000e+00
ITEM: ATOMS id type x y z fx fy fz
1 1 0.0788561 6.44676 6.5418 1.11823 2.83222 -0.946296
2 1 6.383 6.468 3.31241 2.98366 -2.31782 1.89851
3 1 6.62064 3.09115 0.0993707 0.786553 0.340766 -1.7659
4 1 6.54334 3.21276 3.3343 2.56234 -0.960805 -4.3686
5 1 3.38175 6.58374 0.0700691 -3.42696 -2.61193 2.50055
6 1 3.29755 -0.0341818 3.35889 1.73483 -0.59125 0.645073
7 1 3.31519 3.27692 -0.0312606 -0.188944 -0.438932 -0.0184346
8 1 3.27673 3.49515 3.33049 0.144262 2.70047 0.636315
9 1 1.75281 1.69058 1.68805 -1.47741 1.54606 1.90308
10 1 1.70906 1.69721 4.86043 -4.04314 -1.4882 -0.150803
11 1 1.61729 5.19298 1.63162 3.41885 2.09575 0.640202
12 1 1.61891 4.91277 4.91099 -1.05588 -0.855673 0.634975
13 1 5.03904 1.73806 1.56343 -2.39247 -0.782133 1.45509
14 1 4.93369 1.56238 4.93798 0.705083 -1.47412 -3.2181
15 1 4.96925 5.04736 1.58138 -0.215372 2.04042 1.16396
16 1 4.8629 5.01835 5.01005 -0.653634 -0.0348166 -1.00962
ITEM: TIMESTEP
10000
ITEM: NUMBER OF ATOMS
16
ITEM: BOX BOUNDS xy xz yz pp pp pp
0.0000000000000000e+00 6.5999999999999996e+00 0.0000000000000000e+00
0.0000000000000000e+00 6.5999999999999996e+00 0.0000000000000000e+00
0.0000000000000000e+00 6.5999999999999996e+00 0.0000000000000000e+00
ITEM: ATOMS id type x y z fx fy fz
1 1 6.54829 0.0643537 6.51713 1.17382 -0.0992328 2.87334
2 1 0.0371907 0.0607861 3.25227 -0.201287 -2.49967 -3.20022
3 1 0.0695084 3.38356 6.61025 -1.43853 1.7904 0.580352
4 1 6.53455 3.36008 3.24341 1.62787 -2.76556 0.677388
5 1 3.31593 6.49968 0.0239372 1.42861 3.57428 -1.52156
6 1 3.25504 6.61739 3.33374 -0.706615 2.7799 0.784361
7 1 3.35359 3.19292 0.0152384 2.89358 2.33035 1.49922
8 1 3.2575 3.34039 3.37248 -0.0315188 1.60229 -3.01485
9 1 1.62012 1.68319 1.74725 -2.5726 1.18401 -2.2075
10 1 1.71713 1.57765 4.97021 1.68125 -1.09544 2.98079
11 1 1.62008 4.83867 1.60877 0.191447 -0.175081 -1.57617
12 1 1.58722 4.92845 4.89233 0.152978 -1.61156 -0.17937
13 1 5.08764 1.6654 1.66057 -2.46889 0.611007 -1.33214
14 1 5.02497 1.65549 4.87599 -1.01639 1.4255 0.657093
15 1 4.82431 4.99713 1.58316 2.62477 -3.86403 3.60789
16 1 4.94693 4.93486 5.09326 -3.3385 -3.18718 -0.628611
ITEM: TIMESTEP
11000
ITEM: NUMBER OF ATOMS
16
ITEM: BOX BOUNDS xy xz yz pp pp pp
0.0000000000000000e+00 6.5999999999999996e+00 0.0000000000000000e+00
0.0000000000000000e+00 6.5999999999999996e+00 0.0000000000000000e+00
0.0000000000000000e+00 6.5999999999999996e+00 0.0000000000000000e+00
ITEM: ATOMS id type x y z fx fy fz
1 1 6.66709 6.61966 6.46434 -3.34012 2.67451 -1.75834
2 1 -0.000917122 -0.000254453 3.19739 3.59692 3.57269 -0.253627
3 1 6.44053 3.28764 -4.20671e-05 -1.63039 -2.29599 -1.25407
4 1 6.58849 3.35844 3.25627 -1.10325 -3.0789 3.48699
5 1 3.15909 6.65473 6.68442 0.480275 2.38823 0.0468649
6 1 3.33898 0.0381891 3.32334 -2.59139 0.495408 -3.63078
7 1 3.42123 3.25074 0.0744659 -1.46011 -2.94801 -0.282798
8 1 3.29097 3.32819 3.23189 0.219635 3.50754 3.34249
9 1 1.54556 1.56656 1.62979 -0.643882 -2.24466 -3.65097
10 1 1.50978 1.79359 4.95611 4.14888 1.19423 1.75977
11 1 1.69029 4.92911 1.82792 -2.20736 -0.69902 -2.37346
12 1 1.84286 4.95527 5.04075 2.16452 1.99714 -2.39651
13 1 5.03671 1.54786 1.58334 -2.37698 -2.3169 4.09219
14 1 4.86398 1.68584 4.93184 1.83466 -1.19389 1.12247
15 1 4.87632 4.91566 1.66512 1.73591 1.22746 3.22555
16 1 5.12905 4.86877 4.93305 1.17268 -2.27983 -1.47577
ITEM: TIMESTEP
12000
ITEM: NUMBER OF ATOMS
16
ITEM: BOX BOUNDS xy xz yz pp pp pp
0.0000000000000000e+00 6.5999999999999996e+00 0.0000000000000000e+00
0.0000000000000000e+00 6.5999999999999996e+00 0.0000000000000000e+00
0.0000000000000000e+00 6.5999999999999996e+00 0.0000000000000000e+00
ITEM: ATOMS id type x y z fx fy fz
1 1 6.56282 0.135966 -0.0264232 -3.22816 -0.753845 -2.33043
2 1 -0.0639042 -0.00203221 3.32405 -3.13465 2.49977 1.20452
3 1 0.00805241 3.37719 6.40486 -0.738043 -3.43828 1.39824
4 1 6.64412 3.2883 3.17644 -0.331557 4.22653 -1.78182
5 1 3.39031 6.48368 6.70865 1.10875 -1.559 -1.50256
6 1 3.24265 0.0556992 3.40454 2.95292 0.183959 0.801155
7 1 3.32488 3.2308 6.63527 -3.27349 2.2968 -0.788148
8 1 3.27496 3.34249 3.31012 1.54597 0.505412 -2.83163
9 1 1.53658 1.70151 1.59334 -0.516717 2.48216 3.54702
10 1 1.71702 1.71352 5.06757 1.28975 -2.32171 1.89465
11 1 1.73284 5.06338 1.65403 0.282325 0.987534 2.18866
12 1 1.64388 4.97519 5.03351 -2.14067 -2.72129 -1.54111
13 1 4.81869 1.47133 1.73641 3.09064 -0.704773 1.26917
14 1 4.99352 1.62145 5.03143 -1.8934 -2.21721 -1.5147
15 1 4.94517 4.80539 1.57308 2.17245 -2.49054 2.4404
16 1 5.0284 4.93612 4.77312 2.81389 3.02449 -2.45342
ITEM: TIMESTEP
13000
ITEM: NUMBER OF ATOMS
16
ITEM: BOX BOUNDS xy xz yz pp pp pp
0.0000000000000000e+00 6.5999999999999996e+00 0.0000000000000000e+00
0.0000000000000000e+00 6.5999999999999996e+00 0.0000000000000000e+00
0.0000000000000000e+00 6.5999999999999996e+00 0.0000000000000000e+00
ITEM: ATOMS id type x y z fx fy fz
1 1 0.0992585 0.0776006 0.00435099 -0.0722916 -1.07301 3.12024
2 1 0.0554909 6.55086 3.33123 -1.98497 0.799166 1.31541
3 1 6.56939 3.32812 6.56488 0.312998 1.77272 2.07968
4 1 0.10968 3.2345 3.08606 -3.35795 -1.40855 1.44323
5 1 3.27611 6.55519 0.0997649 -2.53084 -0.93552 -0.613936
6 1 3.29899 6.57752 3.37369 -1.34518 0.362677 -1.49352
7 1 3.36795 3.29795 6.52959 -1.17367 -0.41302 2.62733
8 1 3.30682 3.4388 3.17668 -0.618994 0.200524 -2.30379
9 1 1.58758 1.65702 1.76586 4.46113 0.398392 -1.70285
10 1 1.69639 1.80133 5.08361 -3.07699 -3.10454 -1.6696
11 1 1.53194 4.90877 1.72577 4.00084 3.80649 -2.33933
12 1 1.54964 4.85541 4.94818 -1.02367 3.2631 -0.810701
13 1 4.95105 1.52222 1.69003 -3.28288 1.81904 -1.76135
14 1 4.96392 1.69091 4.8415 2.0197 -1.19593 3.59978
15 1 5.00136 4.96593 1.52212 3.42528 -1.42587 0.176207
16 1 4.83442 4.93786 5.05669 4.24747 -2.86567 -1.66681
ITEM: TIMESTEP
14000
ITEM: NUMBER OF ATOMS
16
ITEM: BOX BOUNDS xy xz yz pp pp pp
0.0000000000000000e+00 6.5999999999999996e+00 0.0000000000000000e+00
0.0000000000000000e+00 6.5999999999999996e+00 0.0000000000000000e+00
0.0000000000000000e+00 6.5999999999999996e+00 0.0000000000000000e+00
ITEM: ATOMS id type x y z fx fy fz
1 1 0.0143324 0.106176 -0.0433001 3.56927 1.62388 3.80414
2 1 6.48909 0.0840434 3.34767 -1.63081 -1.75962 -1.80945
3 1 0.0311918 3.39172 0.0743336 -0.928104 -0.0610096 -2.34217
4 1 0.0635819 3.30526 3.44476 1.16608 -0.415286 0.862469
5 1 3.36236 6.57468 6.47921 3.45705 1.81106 2.62503
6 1 3.23423 0.0441562 3.33523 -0.346963 -1.29849 -3.17465
7 1 3.2404 3.27514 6.48021 0.253053 -2.64157 2.27884
8 1 3.32656 3.26527 3.19243 3.27513 -3.88928 -2.01419
9 1 1.65788 1.51781 1.67546 -1.01967 -0.64586 -1.40654
10 1 1.48545 1.58071 5.05829 -1.92102 -2.72951 0.279021
11 1 1.7263 4.9268 1.5519 0.338436 -0.88838 4.00371
12 1 1.61455 4.8156 4.89192 -1.2255 3.84879 -1.10626
13 1 5.01414 1.6907 1.66997 -3.12779 0.630055 2.96876
14 1 4.9328 1.73779 4.96783 3.14415 1.95048 0.249913
15 1 4.97989 4.86001 1.7746 -2.92862 1.35539 -2.86061
16 1 5.02726 5.02415 4.89949 -2.07471 3.10936 -2.35801
ITEM: TIMESTEP
15000
ITEM: NUMBER OF ATOMS
16
ITEM: BOX BOUNDS xy xz yz pp pp pp
0.0000000000000000e+00 6.5999999999999996e+00 0.0000000000000000e+00
0.0000000000000000e+00 6.5999999999999996e+00 0.0000000000000000e+00
0.0000000000000000e+00 6.5999999999999996e+00 0.0000000000000000e+00
ITEM: ATOMS id type x y z fx fy fz
1 1 0.00131658 -0.00610966 -0.0108596 1.13885 -1.77381 2.3455
2 1 -0.0464286 6.63981 3.389 1.83809 0.441413 -2.38281
3 1 -0.0310053 3.25819 0.0376905 1.49688 -1.93487 3.46697
4 1 6.58995 3.25161 3.34693 -1.53169 -0.518814 1.41341
5 1 3.35349 6.51205 0.0297229 -2.52202 1.51374 1.6928
6 1 3.2838 0.108167 3.21859 -2.50974 -1.86236 3.30454
7 1 3.39489 3.24693 0.0858098 0.151872 2.58078 -2.98603
8 1 3.22315 3.39506 3.22233 -0.396591 1.41129 -2.38729
9 1 1.64491 1.6628 1.73408 0.198186 0.508402 -1.66717
10 1 1.64211 1.74633 4.97285 2.44884 -0.400238 3.2759
11 1 1.71787 4.96473 1.59522 -2.47164 2.7502 3.44758
12 1 1.61784 5.09217 5.00019 1.89477 -0.694338 -1.9368
13 1 4.93751 1.554 1.63265 0.0581411 -2.94698 -3.3364
14 1 4.76 1.59637 5.08186 1.839 -1.69779 2.49659
15 1 5.15648 4.90359 1.50298 -1.68976 2.61593 -3.66289
16 1 4.95413 4.87431 4.76096 0.0568039 0.00744335 -3.08389
ITEM: TIMESTEP
16000
ITEM: NUMBER OF ATOMS
16
ITEM: BOX BOUNDS xy xz yz pp pp pp
0.0000000000000000e+00 6.5999999999999996e+00 0.0000000000000000e+00
0.0000000000000000e+00 6.5999999999999996e+00 0.0000000000000000e+00
0.0000000000000000e+00 6.5999999999999996e+00 0.0000000000000000e+00
ITEM: ATOMS id type x y z fx fy fz
1 1 6.4721 0.0632018 6.59749 -2.1008 1.58365 -2.24694
2 1 6.49654 0.055582 3.20457 3.7016 -1.20731 1.44766
3 1 0.137472 3.23475 6.54521 -2.64178 1.94573 -2.5393
4 1 0.013448 3.28847 3.24139 4.08113 -0.401216 -0.722745
5 1 3.33807 0.000246214 0.000683654 2.21908 2.42998 -1.92774e-05
6 1 3.21266 0.0869336 3.29379 -3.08426 1.08833 3.55414
7 1 3.36331 3.25334 0.0214995 1.02865 -3.28804 -1.22799
8 1 3.40946 3.2783 3.34652 -1.82084 -3.90029 -2.44736
9 1 1.58869 1.59894 1.49087 -1.52902 -2.89769 4.01595
10 1 1.45384 1.64701 4.97135 -0.533038 -1.95649 0.824196
11 1 1.79696 4.87533 1.6999 0.974281 2.96797 0.383039
12 1 1.66255 4.93375 4.98065 2.64422 1.89386 2.06494
13 1 4.9307 1.61789 1.76663 2.18237 -2.36293 -0.751407
14 1 4.98749 1.68604 5.05797 -1.91217 2.84892 -1.45496
15 1 5.02981 4.99854 1.65192 -2.11649 -1.58743 1.66906
16 1 4.9069 4.98169 4.92956 -1.09292 2.84297 -2.56826
ITEM: TIMESTEP
17000
ITEM: NUMBER OF ATOMS
16
ITEM: BOX BOUNDS xy xz yz pp pp pp
0.0000000000000000e+00 6.5999999999999996e+00 0.0000000000000000e+00
0.0000000000000000e+00 6.5999999999999996e+00 0.0000000000000000e+00
0.0000000000000000e+00 6.5999999999999996e+00 0.0000000000000000e+00
ITEM: ATOMS id type x y z fx fy fz
1 1 0.143004 6.4964 0.0348859 -4.00769 -2.3416 -2.0349
2 1 6.59406 6.54363 3.39532 1.42652 -3.09446 -2.62432
3 1 0.109023 3.40772 6.38694 -1.16232 -0.0679383 4.48752
4 1 6.56792 3.27482 3.21118 -0.669769 0.245182 2.19939
5 1 3.18435 0.0691462 6.54491 4.08728 0.0374505 2.96075
6 1 3.35245 6.68942 3.38351 -2.74782 -2.9628 -3.8232
7 1 3.4045 3.33147 6.65792 1.28435 -2.94793 2.43803
8 1 3.26669 3.36558 3.24576 2.01312 4.03105 3.45925
9 1 1.65452 1.40893 1.71881 -3.38421 2.86662 3.94822
10 1 1.48218 1.5735 4.98021 4.5726 4.28623 -3.0735
11 1 1.65488 4.79074 1.6337 -2.80499 -2.16323 -2.80639
12 1 1.5964 5.04849 4.89397 0.129095 1.05714 -3.17511
13 1 4.92368 1.64565 1.62038 1.44865 -0.511072 0.611667
14 1 4.94894 1.73187 4.93469 0.924919 0.508613 -3.49833
15 1 5.01877 5.00106 1.77797 -1.72915 -1.29929 2.24125
16 1 4.89863 5.02156 4.97983 0.619405 2.35603 -1.3103
ITEM: TIMESTEP
18000
ITEM: NUMBER OF ATOMS
16
ITEM: BOX BOUNDS xy xz yz pp pp pp
0.0000000000000000e+00 6.5999999999999996e+00 0.0000000000000000e+00
0.0000000000000000e+00 6.5999999999999996e+00 0.0000000000000000e+00
0.0000000000000000e+00 6.5999999999999996e+00 0.0000000000000000e+00
ITEM: ATOMS id type x y z fx fy fz
1 1 -0.0486851 0.129894 6.52013 4.33236 -4.73186 1.51252
2 1 -0.053444 0.0779817 3.30781 3.17698 -1.23707 3.31531
3 1 6.59903 3.29869 0.113598 2.89489 -0.789513 -2.15624
4 1 0.0147871 3.36235 3.3312 0.907595 2.23382 3.15964
5 1 3.39125 6.55472 6.59077 -2.27744 -0.371397 -0.612963
6 1 3.03475 6.41726 3.30185 -0.493459 -2.55269 -0.669369
7 1 3.38947 3.24408 6.45094 0.646221 -0.27382 -0.305956
8 1 3.2908 3.15473 3.21704 -0.18758 -1.06996 1.95966
9 1 1.69441 1.63433 1.63198 -1.15636 1.27242 -1.49753
10 1 1.65608 1.78791 4.97958 -1.48639 1.39708 0.0821411
11 1 1.62916 4.93779 1.5372 -1.07823 1.02361 -1.53806
12 1 1.74805 4.98414 4.97993 0.141185 0.861062 -0.787036
13 1 5.1164 1.60202 1.76687 -3.47399 2.29608 -2.21393
14 1 4.89933 1.73618 4.93647 -1.52313 2.16169 3.08426
15 1 4.94429 4.90133 1.75962 1.91001 -3.70281 -0.965957
16 1 4.89434 4.9766 4.975 -2.33268 3.48337 -2.36649
ITEM: TIMESTEP
19000
ITEM: NUMBER OF ATOMS
16
ITEM: BOX BOUNDS xy xz yz pp pp pp
0.0000000000000000e+00 6.5999999999999996e+00 0.0000000000000000e+00
0.0000000000000000e+00 6.5999999999999996e+00 0.0000000000000000e+00
0.0000000000000000e+00 6.5999999999999996e+00 0.0000000000000000e+00
ITEM: ATOMS id type x y z fx fy fz
1 1 6.48983 0.155353 0.0334416 -0.0600179 1.11044 0.596744
2 1 6.65894 -0.00321882 3.38457 0.557867 -0.101895 -3.72874
3 1 0.00199875 3.34015 6.54462 0.434114 -0.703502 -0.174115
4 1 -0.038237 3.2808 3.32241 -2.80208 -1.02382 1.0856
5 1 3.20755 -0.0549895 6.56476 -2.75373 -0.259814 2.34496
6 1 3.31186 -0.00199176 3.21555 1.87962 -2.08576 3.62975
7 1 3.41994 3.26601 6.62058 1.74095 1.56157 -3.20526
8 1 3.27241 3.19597 3.32296 -0.369943 0.322952 0.423465
9 1 1.73521 1.67878 1.57757 0.240575 1.25047 -0.547799
10 1 1.6095 1.63132 4.83637 0.140331 -1.50441 -0.82078
11 1 1.64801 4.94688 1.75041 1.75005 1.12694 0.183195
12 1 1.63162 4.82695 4.98345 -3.6214 1.22878 1.4431
13 1 5.03195 1.54699 1.67742 2.53466 2.09234 1.40663
14 1 4.87939 1.69007 5.0101 -3.20426 -4.35906 -3.38499
15 1 5.00847 4.93215 1.6898 1.1354 1.38697 0.0101059
16 1 4.93154 5.16878 4.86598 2.39787 -0.0421964 0.738118
ITEM: TIMESTEP
20000
ITEM: NUMBER OF ATOMS
16
ITEM: BOX BOUNDS xy xz yz pp pp pp
0.0000000000000000e+00 6.5999999999999996e+00 0.0000000000000000e+00
0.0000000000000000e+00 6.5999999999999996e+00 0.0000000000000000e+00
0.0000000000000000e+00 6.5999999999999996e+00 0.0000000000000000e+00
ITEM: ATOMS id type x y z fx fy fz
1 1 0.118587 6.5614 0.20454 -1.70746 -0.795013 -2.61993
2 1 6.49812 0.0882721 3.33458 1.82352 -1.43116 0.746288
3 1 0.0999856 3.34461 0.00833954 3.94396 -2.64322 -2.63482
4 1 6.47973 3.27425 3.34427 -1.84795 -3.37489 -3.28454
5 1 3.25237 0.0648822 0.132379 1.69559 1.97885 -0.852304
6 1 3.14362 6.57984 3.4468 1.10798 2.09703 -0.879367
7 1 3.44696 3.1897 6.41832 -2.67167 2.29877 0.166314
8 1 3.3043 3.30477 3.18535 2.42499 2.50668 -1.15198
9 1 1.67442 1.84655 1.66275 -1.39146 2.46025 4.24049
10 1 1.63018 1.59544 5.02283 1.26305 -2.22729 3.01773
11 1 1.65851 5.05399 1.52688 -1.12854 -0.552895 1.23567
12 1 1.64932 4.81974 4.72785 -1.12126 0.479245 2.42881
13 1 4.97105 1.62337 1.64132 -0.956835 -0.572643 0.00194613
14 1 4.94205 1.56224 5.02986 -0.314055 0.369467 -1.08598
15 1 4.81729 4.87634 1.68504 0.34197 0.241314 3.13515
16 1 5.11351 5.01462 4.82889 -1.46183 -0.834494 -2.46349
ITEM: TIMESTEP
21000
ITEM: NUMBER OF ATOMS
16
ITEM: BOX BOUNDS xy xz yz pp pp pp
0.0000000000000000e+00 6.5999999999999996e+00 0.0000000000000000e+00
0.0000000000000000e+00 6.5999999999999996e+00 0.0000000000000000e+00
0.0000000000000000e+00 6.5999999999999996e+00 0.0000000000000000e+00
ITEM: ATOMS id type x y z fx fy fz
1 1 -0.0110288 0.0507575 0.065933 0.669213 -0.392511 -2.81331
2 1 6.57372 -0.0586595 3.29039 0.942314 1.48271 -2.25382
3 1 -0.0142701 3.21825 -0.0153104 -2.57131 -1.93267 3.08696
4 1 6.57707 3.32192 3.27563 1.35978 0.307522 -2.35738
5 1 3.41561 0.0918417 6.55341 -1.97023 2.46681 -0.582363
6 1 3.1684 -0.0414346 3.24663 -0.8087 4.30763 2.96205
7 1 3.34864 3.40266 6.63811 3.86205 -1.70632 -1.17424
8 1 3.39527 3.29134 3.27552 1.38239 -1.07216 -1.91499
9 1 1.62495 1.62951 1.64612 -2.53334 2.00306 2.99869
10 1 1.63562 1.65466 4.89641 -1.48759 -0.420285 -0.299234
11 1 1.65083 4.80054 1.81666 -0.989974 2.01737 -0.590512
12 1 1.65162 5.00754 4.94937 -2.46846 -1.24447 -0.0522736
13 1 4.83568 1.64904 1.64401 4.23724 -0.40804 -0.954413
14 1 5.05321 1.63285 4.88026 3.09779 -1.71353 -0.215249
15 1 5.02385 4.88786 1.65806 -2.30564 -1.52126 1.04404
16 1 4.87082 5.06133 4.9788 -0.415518 -2.17385 3.11604
ITEM: TIMESTEP
22000
ITEM: NUMBER OF ATOMS
16
ITEM: BOX BOUNDS xy xz yz pp pp pp
0.0000000000000000e+00 6.5999999999999996e+00 0.0000000000000000e+00
0.0000000000000000e+00 6.5999999999999996e+00 0.0000000000000000e+00
0.0000000000000000e+00 6.5999999999999996e+00 0.0000000000000000e+00
ITEM: ATOMS id type x y z fx fy fz
1 1 6.57622 6.40059 6.60669 2.68089 1.51667 -0.677687
2 1 6.55052 0.175402 3.3022 2.27371 -3.21316 0.656184
3 1 6.53694 3.09939 0.0322505 3.40903 -2.79259 1.7604
4 1 0.111466 3.33987 3.34271 -0.314794 0.432334 -1.20958
5 1 3.19132 0.0836507 6.5293 3.58046 -2.87474 0.169105
6 1 3.1753 0.131426 3.25918 0.126869 1.67111 1.61068
7 1 3.35941 3.36804 0.0429529 -3.01304 3.57295 2.25909
8 1 3.41311 3.39547 3.30956 -1.26009 2.60598 0.414145
9 1 1.82659 1.62991 1.59299 -0.437826 -1.10823 1.88011
10 1 1.64864 1.46682 4.87544 -0.0855104 2.75488 -2.14711
11 1 1.67813 4.97879 1.64199 -0.737149 -3.72918 -0.852728
12 1 1.53201 4.73193 4.90259 -3.22915 2.41058 -3.22071
13 1 4.95255 1.69856 1.6776 -1.33772 -0.485036 3.74137
14 1 4.93613 1.73447 5.01029 -1.42793 -2.08996 -3.5547
15 1 5.01352 4.96795 1.69093 0.729434 -0.63979 1.24465
16 1 4.89815 4.99773 4.98332 -0.957169 1.96818 -2.07321
ITEM: TIMESTEP
23000
ITEM: NUMBER OF ATOMS
16
ITEM: BOX BOUNDS xy xz yz pp pp pp
0.0000000000000000e+00 6.5999999999999996e+00 0.0000000000000000e+00
0.0000000000000000e+00 6.5999999999999996e+00 0.0000000000000000e+00
0.0000000000000000e+00 6.5999999999999996e+00 0.0000000000000000e+00
ITEM: ATOMS id type x y z fx fy fz
1 1 0.195064 6.55579 0.0584235 2.85005 1.26509 -2.69299
2 1 6.55338 0.0422581 3.35763 0.374917 -0.697817 -2.24517
3 1 0.0500043 3.34945 -0.0154559 1.94995 0.366335 3.14502
4 1 6.44528 3.2252 3.35848 0.244017 0.87208 1.45886
5 1 3.44627 0.0354763 6.52829 0.0700236 -0.761522 1.48656
6 1 3.23762 0.0738403 3.22577 1.90574 2.99459 -3.81294
7 1 3.33696 3.27846 6.4861 -0.558564 2.30163 0.813476
8 1 3.26845 3.50302 3.33843 1.9197 -2.62706 0.618052
9 1 1.58139 1.58442 1.60258 -2.18898 1.16544 2.5649
10 1 1.6968 1.68279 4.95051 -2.29756 2.64734 2.15684
11 1 1.56294 4.95272 1.67073 -2.92582 -3.30977 0.813018
12 1 1.68848 4.98653 5.01182 2.6164 -1.52284 -0.768247
13 1 4.8285 1.55461 1.72641 1.34464 -3.68396 0.816751
14 1 5.03418 1.64309 4.95187 -2.39484 3.12858 -3.44208
15 1 4.8901 4.8077 1.60421 -1.841 0.133822 -0.181642
16 1 4.98461 4.92463 4.94419 -1.06867 -2.27195 -0.730412
ITEM: TIMESTEP
24000
ITEM: NUMBER OF ATOMS
16
ITEM: BOX BOUNDS xy xz yz pp pp pp
0.0000000000000000e+00 6.5999999999999996e+00 0.0000000000000000e+00
0.0000000000000000e+00 6.5999999999999996e+00 0.0000000000000000e+00
0.0000000000000000e+00 6.5999999999999996e+00 0.0000000000000000e+00
ITEM: ATOMS id type x y z fx fy fz
1 1 6.50349 6.59705 0.224568 3.45728 -1.8423 1.44537
2 1 0.0229138 6.46745 3.20688 3.5186 2.43311 2.12547
3 1 0.00398342 3.31249 0.0355451 -2.43765 -3.07964 -0.447252
4 1 0.159442 3.16736 3.39327 -0.371444 3.07265 0.312255
5 1 3.27481 0.0874128 6.54712 3.24991 1.22979 2.89017
6 1 3.32642 0.0417689 3.17426 2.67242 0.00932863 -1.91782
7 1 3.06056 3.40896 0.00652023 -1.82767 -1.10647 -0.168751
8 1 3.4876 3.23127 3.30816 2.24205 3.17758 -2.99194
9 1 1.74809 1.54579 1.45115 -1.66623 -3.75762 -2.37648
10 1 1.6803 1.63734 4.89984 3.08385 2.90873 -1.9208
11 1 1.77862 4.92916 1.73064 -4.40876 -4.29129 -2.59328
12 1 1.49056 5.00792 5.03032 -0.639866 2.98541 -1.61428
13 1 4.9825 1.77507 1.69243 -1.53755 0.345146 1.89891
14 1 5.08205 1.72336 4.92411 -4.18414 -1.47603 3.76479
15 1 4.80905 4.92319 1.60982 -0.718693 -3.32627 -1.31176
16 1 4.78962 4.94442 4.96538 -0.432098 2.71789 2.90539
ITEM: TIMESTEP
25000
ITEM: NUMBER OF ATOMS
16