BEGIN_CFG
 Size
    9
 Supercell
         5.021502      0.000000      0.000000
        -2.510751      4.348749      0.000000
         0.000000      0.000000      5.510570
 AtomData:  id type       cartes_x      cartes_y      cartes_z
             1    0       1.195883      2.071331      0.000000
             2    0       2.629736      0.000000      1.836855
             3    0      -1.314868      2.277418      3.673715
             4    1       1.070549      3.235060      1.132185
             5    1      -0.244381      1.804096      4.805895
             6    1      -0.826168      3.658341      2.969040
             7    1       2.266370      2.544653      4.378385
             8    1       3.581300      1.113688      2.541530
             9    1       1.684583      0.690407      0.704675
END_CFG

