BEGIN_CFG
 Size
    8
 Supercell
        -2.510750      4.348750      0.000000
         0.000000      0.000000      5.510570
         5.021500      0.000000      0.000000
 AtomData:  id type       cartes_x      cartes_y      cartes_z           fx          fy          fz
             1    0       1.095750      2.121690      5.357440    -0.013616   -0.011358   -0.018647
             2    0       2.540700      0.073060      1.810130     0.002995    0.001310    0.003294
             3    0      -1.032650      2.117990      3.773300     0.014707   -0.005412    0.018020
             4    1       0.782670      3.507450      0.681310     0.012104    0.006360   -0.001603
             5    1      -0.727090      3.499990      2.929610    -0.002933    0.004304    0.006136
             6    1       2.542950      2.337800      4.566150    -0.005057    0.013437    0.001982
             7    1       3.664090      0.960410      2.628340     0.003800   -0.002381   -0.008802
             8    1       1.420950      0.972520      1.000660    -0.012000   -0.006260   -0.000380
 Energy
        -60.491500260000
 PlusStress:  xx          yy          zz          yz          xz          xy
        -7.95779    -1.42502    -5.52668     0.01029    -3.56625     0.00805
 Feature   EFS_by	VASP
 Feature   mindist	1.635878
END_CFG

BEGIN_CFG
 Size
    8
 Supercell
        -2.510750      4.348750      0.000000
         0.000000      0.000000      5.510570
         5.021500      0.000000      0.000000
 AtomData:  id type       cartes_x      cartes_y      cartes_z           fx          fy          fz
             1    0       1.183410      2.039410      5.312980    -3.915287    0.647598    2.316672
             2    0       2.579000      0.128920      1.876830    -0.257000   -3.878777   -1.531712
             3    0      -1.024930      2.027830      3.806280     1.767611    1.568061    1.233966
             4    1       0.711090      3.454690      0.581850     0.023431    0.784087    1.348365
             5    1      -0.653290      3.401170      2.984870     0.669827    1.882246   -0.908883
             6    1       2.521470      2.248600      4.534670     2.287550    0.226073   -1.231435
             7    1       3.747530      0.975130      2.632560    -0.795803   -1.701896   -1.358035
             8    1       1.428310      0.923860      1.029240     0.219670    0.472608    0.131062
 Energy
        -59.771994950000
 PlusStress:  xx          yy          zz          yz          xz          xy
        -4.63998    -2.84822    -5.96036     0.57006    -2.61311     0.96335
 Feature   EFS_by	VASP
 Feature   mindist	1.562028
END_CFG

BEGIN_CFG
 Size
    8
 Supercell
        -2.510750      4.348750      0.000000
         0.000000      0.000000      5.510570
         5.021500      0.000000      0.000000
 AtomData:  id type       cartes_x      cartes_y      cartes_z           fx          fy          fz
             1    0       1.111390      2.052290      5.314680    -0.241373    1.819961    0.906679
             2    0       2.543160      0.054400      1.772830     0.131889    0.946335    2.165151
             3    0      -1.054070      2.214030      3.753740     0.400803   -2.338801   -0.987457
             4    1       0.743830      3.468830      0.744650     1.384292   -2.581986   -2.383961
             5    1      -0.799230      3.569110      2.929830     0.207664    0.483456   -0.284122
             6    1       2.603790      2.362380      4.613610    -1.034796    0.094587    0.416898
             7    1       3.652510      0.958790      2.604020     0.333525    1.089726    0.951819
             8    1       1.491690      0.976480      0.987140    -1.182004    0.486722   -0.785008
 Energy
        -60.131335550000
 PlusStress:  xx          yy          zz          yz          xz          xy
        -5.20535    -1.13020    -4.10110    -2.65550    -4.59355    -1.64940
 Feature   EFS_by	VASP
 Feature   mindist	1.560842
END_CFG

BEGIN_CFG
 Size
    8
 Supercell
        -2.510750      4.348750      0.000000
         0.000000      0.000000      5.510570
         5.021500      0.000000      0.000000
 AtomData:  id type       cartes_x      cartes_y      cartes_z           fx          fy          fz
             1    0       1.162050      2.109090      5.385700    -0.879949    1.985202    0.253202
             2    0       2.511220      0.094880      1.889730    -3.157838   -4.082667   -3.762502
             3    0      -0.933530      2.055450      3.810540    -2.002319   -1.221346   -0.152333
             4    1       0.866070      3.547370      0.726930    -0.780078   -0.883547   -0.342580
             5    1      -0.780990      3.418490      2.971290     0.731946    1.651332   -1.340535
             6    1       2.569490      2.244520      4.596250     1.502401    0.086122   -0.948381
             7    1       3.581010      0.894990      2.554600     4.551358    4.318107    4.454414
             8    1       1.438090      0.995000      0.978560     0.034479   -1.853202    1.838715
 Energy
        -59.585453490000
 PlusStress:  xx          yy          zz          yz          xz          xy
        -4.96964    -0.11033    -4.95342    -1.78207     0.19836     3.87380
 Feature   EFS_by	VASP
 Feature   mindist	1.492206
END_CFG

BEGIN_CFG
 Size
    17
 Supercell
        -2.510750      4.348750      0.000000
         0.000000      0.000000     11.021100
         5.021500      0.000000      0.000000
 AtomData:  id type       cartes_x      cartes_y      cartes_z           fx          fy          fz
             1    0       1.299290      1.970340      0.198440     0.006303   -0.013278    0.034045
             2    0       1.197440      2.090320      5.493790    -0.005994    0.019808   -0.028442
             3    0       2.411220      0.220840      1.669530    -0.026800    0.011994    0.011342
             4    0       0.048930      4.322570      7.394420    -0.013735    0.051655   -0.022238
             5    0      -1.317850      2.369490      3.576570    -0.005187   -0.001024    0.013968
             6    0      -1.167550      2.131850      9.299550     0.007835    0.019390   -0.003914
             7    1       0.797840      3.372160      0.947180    -0.002877   -0.002933   -0.016410
             8    1       0.981350      3.265390      6.594050     0.001293   -0.001911   -0.025734
             9    1      -0.143660      1.881590      4.595520     0.044669   -0.013422   -0.008448
            10    1       0.048490      1.548410     10.232800     0.039241   -0.017157   -0.036964
            11    1      -0.994490      3.789650      2.821220    -0.002263    0.036439   -0.028888
            12    1      -0.784110      3.539020      8.559390    -0.047673   -0.044276    0.044148
            13    1       2.362500      2.557490      4.465250     0.007744    0.003790    0.035950
            14    1       2.559580      2.393580     10.252400     0.055760    0.012425    0.036366
            15    1       3.478630      1.215070      2.439580    -0.022762   -0.040410   -0.039293
            16    1       3.524570      1.055200      8.127770    -0.016182   -0.008468    0.002818
            17    1       1.588490      0.725380      6.307570    -0.019370   -0.012619    0.031694
 Energy
       -131.559842730000
 PlusStress:  xx          yy          zz          yz          xz          xy
        -1.50005    -6.26367    -4.84661     3.80365    -1.97782     3.09433
 Feature   EFS_by	VASP
 Feature   mindist	1.619808
END_CFG

BEGIN_CFG
 Size
    17
 Supercell
        -2.510750      4.348750      0.000000
         0.000000      0.000000     11.021100
         5.021500      0.000000      0.000000
 AtomData:  id type       cartes_x      cartes_y      cartes_z           fx          fy          fz
             1    0       1.368090      1.964920      0.259060    -2.713646   -0.249809   -0.297484
             2    0       1.259780      2.152260      5.509210    -0.833716   -0.271938    0.785157
             3    0       2.400840      0.134340      1.583710    -0.288784    3.318874    4.554356
             4    0       0.127470      4.313910      7.451540    -6.253929   -0.150289   -3.274496
             5    0      -1.227910      2.316550      3.568290    -0.199386    4.162822    5.910416
             6    0      -1.128250      2.137970      9.293210    -2.589864   -0.953750   -0.560707
             7    1       0.822220      3.444640      0.877740     1.396848   -1.936097   -0.806304
             8    1       0.938770      3.280030      6.670630     2.114792   -2.410484   -1.907832
             9    1      -0.053600      1.781970      4.660920    -2.768642    1.188390   -1.809375
            10    1       0.015850      1.642570     10.267100     1.842242   -0.768066    1.271155
            11    1      -0.967690      3.852630      2.877140     0.599027   -0.762853   -0.976101
            12    1      -0.869650      3.491380      8.504290     0.675461    1.532269   -0.228496
            13    1       2.319420      2.526510      4.423670     3.394657    1.182135   -1.854264
            14    1       2.530680      2.341160     10.302200     2.846296    0.338643   -2.144766
            15    1       3.533910      1.279630      2.536400    -2.163605   -5.612096   -6.197778
            16    1       3.471570      1.059060      8.057770     3.120598    4.064662    4.183740
            17    1       1.629170      0.780660      6.210050     1.821650   -2.672414    3.352780
 Energy
       -128.842047980000
 PlusStress:  xx          yy          zz          yz          xz          xy
         0.34410     5.09484    -2.06957     9.25840    -4.58069     3.85561
 Feature   EFS_by	VASP
 Feature   mindist	1.485744
END_CFG

BEGIN_CFG
 Size
    17
 Supercell
        -2.510750      4.348750      0.000000
         0.000000      0.000000     11.021100
         5.021500      0.000000      0.000000
 AtomData:  id type       cartes_x      cartes_y      cartes_z           fx          fy          fz
             1    0       1.297570      2.010080      0.215560     0.240595   -0.662668    0.895767
             2    0       1.172300      2.120140      5.438330     1.138696   -0.335319    0.133482
             3    0       2.478520      0.318020      1.608250    -0.947744   -1.506018    2.678959
             4    0      -0.022430      4.273590      7.423160     1.791404    2.254839   -0.940066
             5    0      -1.233290      2.334990      3.584710    -4.629911    4.851410   -0.842036
             6    0      -1.238070      2.154270      9.376710     3.385956   -0.801000   -0.991844
             7    1       0.785740      3.392740      0.871920    -0.248138    2.155176    1.326246
             8    1       1.046050      3.241250      6.610410    -1.924371    1.821894    0.861583
             9    1      -0.155100      1.904450      4.515740     4.803336   -1.440481    4.182932
            10    1       0.067050      1.638990     10.308300    -1.959622   -0.797318   -1.520934
            11    1      -1.046410      3.778510      2.836480     1.949694    2.090607   -1.867789
            12    1      -0.791850      3.529780      8.631510    -0.173880    0.501428   -0.237549
            13    1       2.399300      2.515570      4.461610    -0.225154   -0.023406    0.093055
            14    1       2.562140      2.307340     10.299800    -1.216542    1.054433    1.189358
            15    1       3.536970      1.313410      2.479500    -1.564661   -4.522414   -4.253755
            16    1       3.491050      1.110060      8.217170    -1.385865   -2.561639   -1.994619
            17    1       1.532150      0.795180      6.317550     0.966207   -2.079524    1.287211
 Energy
       -129.661158700000
 PlusStress:  xx          yy          zz          yz          xz          xy
         1.96426    -2.34076     1.84652     6.57787     0.28036     1.46689
 Feature   EFS_by	VASP
 Feature   mindist	1.488178
END_CFG

BEGIN_CFG
 Size
    17
 Supercell
        -2.510750      4.348750      0.000000
         0.000000      0.000000     11.021100
         5.021500      0.000000      0.000000
 AtomData:  id type       cartes_x      cartes_y      cartes_z           fx          fy          fz
             1    0       1.394730      2.004840      0.211320    -3.832523    1.006956    1.276260
             2    0       1.209240      2.140420      5.556570    -0.993218   -2.294392   -2.647302
             3    0       2.370300      0.316560      1.722910     0.453477   -2.007378   -0.386557
             4    0       2.621320      0.044660      7.463700    -3.901817   -3.624383   -2.587965
             5    0      -1.413910      2.459630      3.663670     7.088328   -2.832927   -5.626565
             6    0      -1.091470      2.158810      9.371770    -5.022091    1.965385   -4.516772
             7    1       0.770280      3.428720      1.033160     0.707628   -1.637808   -1.698701
             8    1       1.028210      3.280310      6.605410    -0.968613    1.863675    1.979607
             9    1      -0.156860      1.890030      4.561740     1.809982    0.464896    1.291708
            10    1       0.024690      1.600510     10.168800     5.860127   -1.704855    4.466516
            11    1      -0.981270      3.764250      2.818780    -0.544786    1.253901   -0.136533
            12    1      -0.858010      3.625420      8.634110     1.057671   -0.205905   -0.984620
            13    1       2.451380      2.630010      4.535690    -6.911916    0.187964    4.596654
            14    1       2.528880      2.427740     10.220800     1.678590    0.085286   -1.041340
            15    1       3.544270      1.180230      2.398060    -0.181571    2.631413    2.365587
            16    1       3.577310      0.996440      8.140250     2.558442    4.095369    2.871698
            17    1       1.540490      0.666100      6.276610     1.142289    0.752801    0.778324
 Energy
       -129.003548900000
 PlusStress:  xx          yy          zz          yz          xz          xy
         6.02976    -8.67307    -3.66208     1.73521    -3.64735     3.47494
 Feature   EFS_by	VASP
 Feature   mindist	1.458173
END_CFG

BEGIN_CFG
 Size
    17
 Supercell
        -2.510750      4.348750      0.000000
         0.000000      0.000000     11.021100
         5.021500      0.000000      0.000000
 AtomData:  id type       cartes_x      cartes_y      cartes_z           fx          fy          fz
             1    0       1.237270      2.057920      0.209440     2.238934   -3.070772   -1.994476
             2    0       1.246800      1.991740      5.413250    -2.519788    1.922168    2.176675
             3    0       2.453840      0.198460      1.668130    -3.657993    0.392665    0.492210
             4    0       0.127590      4.340450      7.467620     0.311412   -1.709970   -2.672209
             5    0       3.606910      2.413470      3.636190     5.337399   -1.791533   -4.094635
             6    0      -1.089570      2.091770      9.258730    -3.612262    5.972977    1.765355
             7    1       0.773300      3.328420      1.040540     0.379938    0.271224   -0.259164
             8    1       1.025150      3.187290      6.552570    -1.383275    1.893098    1.443074
             9    1      -0.114340      1.883270      4.522320     0.181229   -0.378272    0.030975
            10    1      -0.009710      1.602090     10.200300     3.891635   -1.085560    3.329967
            11    1      -0.983650      3.808370      2.903360    -0.067474    0.094602   -0.812879
            12    1      -0.735210      3.634140      8.642970    -0.165210   -1.349041    0.138673
            13    1       2.430860      2.595230      4.553490    -2.458875    0.462646    1.189697
            14    1       2.526540      2.337020     10.185600    -0.151892    0.290417    0.381974
            15    1       3.418810      1.161790      2.443780     1.657167    3.031555    2.385685
            16    1       3.551410      1.106940      8.191890    -0.577574   -3.218553   -3.978373
            17    1       1.674510      0.779640      6.355010     0.596630   -1.727652    0.477450
 Energy
       -129.408768590000
 PlusStress:  xx          yy          zz          yz          xz          xy
         5.71587    -1.49002     1.49573     5.00855     0.53739     3.33382
 Feature   EFS_by	VASP
 Feature   mindist	1.500944
END_CFG

BEGIN_CFG
 Size
    17
 Supercell
        -2.510750      4.348750      0.000000
         0.000000      0.000000     11.021100
         5.021500      0.000000      0.000000
 AtomData:  id type       cartes_x      cartes_y      cartes_z           fx          fy          fz
             1    0       1.118560      2.023890     10.922200    -0.001294    0.008279   -0.014297
             2    0       1.247860      2.277000      5.628560    -0.001834    0.010005    0.015101
             3    0       0.099800      4.338850      1.819660    -0.003519   -0.003323   -0.015507
             4    0       2.663410      0.142680      7.547010     0.008499    0.017777    0.028092
             5    0      -1.255520      2.222810      3.721920     0.006707   -0.018249   -0.004739
             6    0       3.627520      1.972320      9.015280     0.007963   -0.023333   -0.019271
             7    1       0.949380      3.292170      0.909370     0.002267    0.027863   -0.015528
             8    1       1.138870      3.633550      6.544050     0.003501    0.029319   -0.034814
             9    1      -0.157010      1.898420      4.885870     0.008878   -0.022954   -0.004826
            10    1      -0.271670      1.588430     10.166200     0.008311   -0.017848   -0.003683
            11    1      -0.808700      3.555800      2.913640    -0.018039   -0.022922   -0.000586
            12    1      -0.804380      3.345640      8.287760    -0.003422    0.001879   -0.001542
            13    1       2.350870      2.518020      4.460310     0.003315   -0.001607    0.001937
            14    1       2.233580      2.400240      9.784970     0.010773    0.006071   -0.003548
            15    1       3.600160      1.002290      2.640920     0.013596   -0.019326    0.017225
            16    1       1.622470      0.776230      0.801520    -0.014206    0.004744    0.026981
            17    1       1.660230      1.036710      6.599550    -0.031496    0.023624    0.029007
 Energy
       -131.565039440000
 PlusStress:  xx          yy          zz          yz          xz          xy
        -2.21911    -5.24366    -4.73727    -3.46205    -2.20568    -3.67427
 Feature   EFS_by	VASP
 Feature   mindist	1.619054
END_CFG

BEGIN_CFG
 Size
    17
 Supercell
        -2.510750      4.348750      0.000000
         0.000000      0.000000     11.021100
         5.021500      0.000000      0.000000
 AtomData:  id type       cartes_x      cartes_y      cartes_z           fx          fy          fz
             1    0       1.054080      2.100890     10.967300     5.308042   -3.674140   -1.844367
             2    0       1.185060      2.339840      5.640140     1.278742   -4.865545   -3.709659
             3    0       0.117480      4.278710      1.783760    -2.635139    1.083566    1.047432
             4    0       2.715830      0.234020      7.497090     1.222615   -4.068412    2.336858
             5    0       3.678240      2.162030      3.677000     1.951186    2.299035    1.089674
             6    0       3.554040      1.957500      9.094160     2.342390    2.222286   -0.380260
             7    1       1.013420      3.256210      0.879490    -1.207798    5.830518    4.769497
             8    1       1.174550      3.573970      6.500890    -0.638491    5.087819    3.366238
             9    1      -0.239650      1.988980      4.889650     0.923308   -0.544168    0.632328
            10    1      -0.194230      1.686590     10.265300    -6.957808   -1.413811   -3.880706
            11    1      -0.898740      3.616520      2.989800     1.011595   -0.717328   -2.196946
            12    1      -0.749320      3.370600      8.253820    -0.359341   -0.898725    0.769004
            13    1       2.317530      2.460680      4.393270    -2.979698    0.202574    1.945295
            14    1       2.191380      2.495320      9.836310     1.093189   -0.310475   -0.661839
            15    1       3.535080      0.909650      2.731500     0.550026   -1.138746   -1.791622
            16    1       1.612470      0.837150      0.777280     1.818751   -2.161722    1.569787
            17    1       1.756170      1.061690      6.639350    -2.721568    3.067274   -3.060715
 Energy
       -128.935234160000
 PlusStress:  xx          yy          zz          yz          xz          xy
        -0.05543     3.43561    -0.68588    10.04069     2.75147    -3.37484
 Feature   EFS_by	VASP
 Feature   mindist	1.485748
END_CFG

BEGIN_CFG
 Size
    17
 Supercell
        -2.510750      4.348750      0.000000
         0.000000      0.000000     11.021100
         5.021500      0.000000      0.000000
 AtomData:  id type       cartes_x      cartes_y      cartes_z           fx          fy          fz
             1    0       1.084620      1.984550     10.929400     1.947353    0.432647   -0.152273
             2    0       1.197800      2.182060      5.626400     5.657931    3.420805    3.231960
             3    0       2.664270      0.072600      1.742700    -1.442759   -5.974328    2.672557
             4    0       2.643330      0.162180      7.630770     1.576553   -0.563871   -2.670214
             5    0      -1.172380      2.197390      3.730640    -3.158246    0.737269   -1.669855
             6    0       3.576720      1.940600      8.993700     2.548138    1.071042   -1.213003
             7    1       0.858580      3.318250      0.809930     1.377905   -1.265055   -0.403776
             8    1       1.199410      3.694550      6.579010    -0.649707   -1.272954   -0.458473
             9    1      -0.105890      1.976460      4.881750    -2.656362   -1.432125   -1.442154
            10    1      -0.217730      1.662410     10.087000    -1.536221   -1.028440   -0.347428
            11    1      -0.887920      3.495840      2.822200     1.734993    0.982445   -0.930707
            12    1      -0.776320      3.335640      8.201380    -1.862032   -2.551047    2.048887
            13    1       2.403810      2.588780      4.483490    -0.269462   -1.589393    0.613348
            14    1       2.236600      2.350940      9.727650    -1.966117    0.214329    2.195509
            15    1       3.586940      0.936130      2.585220     2.843616    3.196455    3.339707
            16    1       1.645010      0.686310      0.814100    -3.974347    4.389981   -3.940215
            17    1       1.561210      0.955990      6.665250    -0.171237    1.232239   -0.873869
 Energy
       -129.303755930000
 PlusStress:  xx          yy          zz          yz          xz          xy
         8.35014    -8.89263    -3.34115    -2.53971     9.76636    -3.34786
 Feature   EFS_by	VASP
 Feature   mindist	1.509248
END_CFG

BEGIN_CFG
 Size
    17
 Supercell
        -2.510750      4.348750      0.000000
         0.000000      0.000000     11.021100
         5.021500      0.000000      0.000000
 AtomData:  id type       cartes_x      cartes_y      cartes_z           fx          fy          fz
             1    0       1.147140      2.030750     10.948900    -2.307231   -1.768794   -2.955575
             2    0       1.211400      2.235000      5.633320     2.652811    0.588722   -0.429651
             3    0       2.669970      0.029080      1.725440    -1.530865   -2.940239    1.759532
             4    0       2.670750      0.202440      7.492850     1.192567   -1.780902    1.081454
             5    0       3.781880      2.137670      3.684800     0.716567    2.454575    2.311317
             6    0       3.584100      2.040120      8.948920     1.042621   -0.220259    1.936624
             7    1       0.956180      3.262990      0.820750    -1.020009    3.794237    3.002544
             8    1       1.115390      3.618190      6.489270     0.114270    0.487809    0.389555
             9    1      -0.136170      1.805620      4.968210    -3.384976   -0.316095   -2.716959
            10    1      -0.211210      1.623650     10.067800    -0.746821   -0.176506    0.074379
            11    1      -0.782520      3.519600      2.922140     1.358315    0.741327   -1.235457
            12    1      -0.724460      3.372980      8.281300    -0.555521    0.261653   -0.082520
            13    1       2.335550      2.431820      4.392830    -0.368810   -0.239340    1.031127
            14    1       2.224060      2.421380      9.877250     3.150712    0.329807   -2.824111
            15    1       3.563520      1.066390      2.548080     0.889698   -1.337776   -0.739095
            16    1       1.648710      0.823950      0.803520    -0.039980   -1.301820    0.536810
            17    1       1.647150      0.991230      6.599430    -1.163350    1.423602   -1.139974
 Energy
       -130.287747230000
 PlusStress:  xx          yy          zz          yz          xz          xy
        -1.93283     1.70614    -2.74574     0.05897     1.70336    -4.07354
 Feature   EFS_by	VASP
 Feature   mindist	1.533702
END_CFG

BEGIN_CFG
 Size
    17
 Supercell
        -2.510750      4.348750      0.000000
         0.000000      0.000000     11.021100
         5.021500      0.000000      0.000000
 AtomData:  id type       cartes_x      cartes_y      cartes_z           fx          fy          fz
             1    0       1.116880      2.054930     10.933700     0.875252   -2.054490   -2.815442
             2    0       1.218440      2.355920      5.574360     1.589445    0.058190    2.478894
             3    0       2.563490      0.029500      1.900680     2.500729   -0.073803   -5.436673
             4    0       2.745010      0.235300      7.618870    -2.119333   -0.065638   -1.203155
             5    0       3.683120      2.295350      3.648160     5.921505   -2.970446    0.688174
             6    0       3.565240      2.056600      9.082380     3.931641   -0.579495   -1.406234
             7    1       0.919620      3.193970      0.897610    -1.384844    4.806173    4.323916
             8    1       1.228450      3.725750      6.623430     0.011041   -1.356497   -1.637821
             9    1      -0.133230      1.843900      4.912970    -2.544933    1.124610   -2.602941
            10    1      -0.218850      1.620830     10.174800    -2.474708   -0.257863   -1.065509
            11    1      -0.728960      3.613560      2.980400    -1.861683   -1.078644    1.327380
            12    1      -0.813060      3.401040      8.333440     0.588764    0.672288   -0.332172
            13    1       2.387990      2.426360      4.372430    -5.016682    1.451466    2.466166
            14    1       2.178780      2.417220      9.689710    -2.235990    0.644240    2.216323
            15    1       3.644260      0.963470      2.645260     0.393438    1.373647    0.212871
            16    1       1.692830      0.775130      0.717180     0.684378   -0.995575    1.460247
            17    1       1.697690      1.105870      6.517010     1.141981   -0.698163    1.325977
 Energy
       -129.395344170000
 PlusStress:  xx          yy          zz          yz          xz          xy
         5.13222    -5.42506    -5.57524    -0.85333    -9.19631     0.33683
 Feature   EFS_by	VASP
 Feature   mindist	1.489662
END_CFG

BEGIN_CFG
 Size
    17
 Supercell
        -2.510750      4.348750      0.000000
         0.000000      0.000000     11.021100
         5.021500      0.000000      0.000000
 AtomData:  id type       cartes_x      cartes_y      cartes_z           fx          fy          fz
             1    0       1.496420      2.149140     10.854100     0.017340    0.020655   -0.023394
             2    0       1.207760      2.143560      5.557430     0.014899    0.014923    0.006194
             3    0       0.201560      4.305590      1.740010    -0.006272   -0.003267   -0.014371
             4    0      -0.080620      4.294110      7.462410    -0.008722   -0.007972    0.014539
             5    0      -1.299280      2.267100      3.656640     0.004902   -0.003035   -0.003632
             6    0       3.567510      2.238960      9.382940    -0.017565   -0.002379    0.024121
             7    1       1.269360      3.314200      0.983810     0.011014    0.016201    0.004228
             8    1       0.944900      3.256870      6.724610     0.013438    0.016508   -0.004481
             9    1      -0.175710      1.865750      4.758290     0.019667   -0.000019   -0.013300
            10    1       0.010290      1.970430     10.131800     0.006796    0.005367   -0.010485
            11    1      -0.807260      3.533350      2.760990    -0.025641   -0.011378   -0.025265
            12    1      -1.193260      3.535350      8.399160    -0.032693   -0.025351   -0.042693
            13    1       2.342980      2.609200      4.470050     0.019782    0.026241    0.012460
            14    1       3.545930      1.026190      2.626200    -0.005877   -0.021927    0.028241
            15    1       3.303870      0.938240      8.412050    -0.009943   -0.044082    0.046468
            16    1       1.823930      0.727990      0.601920    -0.005048    0.005586   -0.004195
            17    1       1.661250      0.766790      6.289460     0.003924    0.013927    0.005566
 Energy
       -131.558941870000
 PlusStress:  xx          yy          zz          yz          xz          xy
        -7.82756    -0.01533    -4.90443    -0.23054     4.30546     0.51739
 Feature   EFS_by	VASP
 Feature   mindist	1.619804
END_CFG

BEGIN_CFG
 Size
    17
 Supercell
        -2.510750      4.348750      0.000000
         0.000000      0.000000     11.021100
         5.021500      0.000000      0.000000
 AtomData:  id type       cartes_x      cartes_y      cartes_z           fx          fy          fz