ITEM: TIMESTEP
0
ITEM: NUMBER OF ATOMS
16
ITEM: BOX BOUNDS xy xz yz pp pp pp
0.0000000000000000e+00 6.5999999999999996e+00 0.0000000000000000e+00
0.0000000000000000e+00 6.5999999999999996e+00 0.0000000000000000e+00
0.0000000000000000e+00 6.5999999999999996e+00 0.0000000000000000e+00
ITEM: ATOMS id type x y z fx fy fz
1 1 0 0 0 -4.9106 -0.528089 0.108521
2 1 0 0 3.3 -3.16292 0.83699 -4.14036
3 1 0 3.3 0 -4.97039 -6.45751 5.42611
4 1 0 3.3 3.3 -2.28091 -0.710769 -0.914228
5 1 3.3 0 0 -7.34115 -5.45392 4.56202
6 1 3.3 0 3.3 3.68316 -1.50812 7.4982
7 1 3.3 3.3 0 -7.50303 5.04557 -0.196244
8 1 3.3 3.3 3.3 -6.80251 -0.60501 -2.85429
9 1 1.65 1.65 1.65 1.96205 -2.44043 4.03784
10 1 1.65 1.65 4.95 -3.40105 3.81146 2.54872
11 1 1.65 4.95 1.65 2.53406 2.3499 -6.95009
12 1 1.65 4.95 4.95 8.18562 -7.94514 -2.80189
13 1 4.95 1.65 1.65 6.82854 1.59938 -4.2986
14 1 4.95 1.65 4.95 5.71117 4.48957 -7.46303
15 1 4.95 4.95 1.65 4.92817 1.2014 4.98105
16 1 4.95 4.95 4.95 6.5398 6.31472 0.456263
ITEM: TIMESTEP
1000
ITEM: NUMBER OF ATOMS
16
ITEM: BOX BOUNDS xy xz yz pp pp pp
0.0000000000000000e+00 6.5999999999999996e+00 0.0000000000000000e+00
0.0000000000000000e+00 6.5999999999999996e+00 0.0000000000000000e+00
0.0000000000000000e+00 6.5999999999999996e+00 0.0000000000000000e+00
ITEM: ATOMS id type x y z fx fy fz
1 1 0.135358 6.41398 0.137648 0.103909 4.37648 1.04155
2 1 0.105099 6.46717 3.24718 -6.87961 -3.08383 -1.95802
3 1 6.39043 3.24917 -0.0315006 7.48944 -6.28273 -1.77363
4 1 6.34738 3.35192 3.38427 3.83566 8.41108 -4.62623
5 1 3.57351 0.0948229 0.0210456 -7.96325 5.13099 -4.63753
6 1 3.19945 6.6161 3.48559 7.95579 -5.43765 -0.390121
7 1 3.34562 3.42248 0.0478281 -7.45542 -5.47919 -3.20654
8 1 3.17263 3.49733 3.27873 -6.59737 -3.51533 7.10626
9 1 1.78444 1.67839 1.42977 4.40989 -6.64513 0.97332
10 1 1.83221 1.74507 4.90023 2.32543 7.88191 0.452441
11 1 1.38547 4.79121 1.68581 2.13033 3.74603 4.90141
12 1 1.64659 4.77374 5.30911 -7.8439 -6.1816 1.60447
13 1 4.99734 1.91108 1.73364 1.26064 3.42299 -0.598252
14 1 5.31987 1.44829 4.71982 -4.83244 5.22317 -6.13231
15 1 4.60601 5.03093 1.54135 7.65343 3.0132 8.56713
16 1 4.95858 4.9083 4.70947 4.40747 -4.58038 -1.32394
ITEM: TIMESTEP
2000
ITEM: NUMBER OF ATOMS
16
ITEM: BOX BOUNDS xy xz yz pp pp pp
0.0000000000000000e+00 6.5999999999999996e+00 0.0000000000000000e+00
0.0000000000000000e+00 6.5999999999999996e+00 0.0000000000000000e+00
0.0000000000000000e+00 6.5999999999999996e+00 0.0000000000000000e+00
ITEM: ATOMS id type x y z fx fy fz
1 1 6.66894 6.61049 0.099471 -2.32638 -2.12553 -1.85752
2 1 0.118535 6.65685 3.33203 -0.227203 3.32008 -0.735752
3 1 0.192563 3.46348 0.256632 1.16009 -5.44426 -8.3746
4 1 0.297853 3.09121 3.52506 0.144181 -1.98958 1.035
5 1 3.25696 0.0492649 6.2693 0.683405 1.65181 -6.68153
6 1 3.34364 0.0414049 3.20021 0.132965 0.186402 3.4383
7 1 3.0579 3.33306 0.0275974 -6.21534 -6.06618 -7.3486
8 1 3.28459 3.25444 3.01476 -0.545218 -0.399144 7.09628
9 1 1.56828 1.49753 1.71399 4.1388 0.269197 1.28712
10 1 1.84273 1.68461 5.20855 -6.74587 -3.97598 -6.62449
11 1 1.69944 4.92075 1.65155 4.87497 7.50686 6.61575
12 1 1.60906 5.04876 4.98234 0.220604 -7.90677 4.50269
13 1 4.59814 1.7601 1.7386 3.17268 1.85985 -6.22073
14 1 4.93058 1.6923 5.00077 -0.570803 8.02039 3.56083
15 1 4.83553 4.927 1.49827 -4.82673 6.18335 1.7437
16 1 4.89526 4.76876 4.68086 6.92986 -1.09051 8.56358
ITEM: TIMESTEP
3000
ITEM: NUMBER OF ATOMS
16
ITEM: BOX BOUNDS xy xz yz pp pp pp
0.0000000000000000e+00 6.5999999999999996e+00 0.0000000000000000e+00
0.0000000000000000e+00 6.5999999999999996e+00 0.0000000000000000e+00
0.0000000000000000e+00 6.5999999999999996e+00 0.0000000000000000e+00
ITEM: ATOMS id type x y z fx fy fz
1 1 6.55284 -0.010486 6.71243 -4.38408 -1.60765 6.60244
2 1 0.0709609 0.220736 3.5653 -7.86553 -2.20116 -5.49577
3 1 6.40189 3.34174 -0.0104469 6.00048 -2.29381 -1.70193
4 1 0.0734313 3.38508 3.11815 -2.35732 -1.66353 7.00328
5 1 3.38042 6.69949 6.40088 -1.87596 -2.18758 -3.46551
6 1 3.14248 6.52671 3.30447 6.80527 -1.25519 1.91324
7 1 3.20742 3.28045 0.190292 2.7481 -2.07872 -2.26955
8 1 3.39242 3.2171 3.23295 0.41636 4.51378 -1.28409
9 1 1.72569 1.39874 1.52567 -0.924827 2.54207 -0.356861
10 1 1.80111 1.69221 4.81552 7.30324 6.85382 -1.4641
11 1 1.59875 5.17182 1.5656 -2.03502 -5.22226 -2.61216
12 1 1.49028 4.80429 5.17611 -4.03479 -1.46294 1.91649
13 1 5.30503 1.38579 1.68164 -4.56953 4.6483 0.431735
14 1 5.00514 1.87993 4.93016 1.423 -5.08119 2.52559
15 1 4.96072 4.78557 1.65501 -5.12542 9.8595 -6.53996
16 1 4.69143 5.02084 4.93626 8.47602 -3.36345 4.79716
ITEM: TIMESTEP
4000
ITEM: NUMBER OF ATOMS
16
ITEM: BOX BOUNDS xy xz yz pp pp pp
0.0000000000000000e+00 6.5999999999999996e+00 0.0000000000000000e+00
0.0000000000000000e+00 6.5999999999999996e+00 0.0000000000000000e+00
0.0000000000000000e+00 6.5999999999999996e+00 0.0000000000000000e+00
ITEM: ATOMS id type x y z fx fy fz
1 1 0.0382579 6.36969 0.102576 0.394772 0.676685 -8.88133
2 1 6.58692 0.0449248 3.15298 0.592561 -2.81766 1.00833
3 1 0.143604 3.06037 0.14819 -2.17347 2.42025 5.44619
4 1 0.102639 3.42107 3.43706 2.71712 -1.64074 1.90367
5 1 3.3072 0.0646145 0.128063 -0.23431 1.61579 5.98812
6 1 3.2137 0.140998 3.23495 2.79739 -1.30863 7.0222
7 1 3.31262 3.14007 0.111368 0.0752804 -3.52286 -6.28183
8 1 3.31724 3.37278 3.39381 6.44386 0.639372 1.54554
9 1 1.44574 1.60661 1.42678 6.17682 5.94389 -3.54107
10 1 1.78605 1.52406 4.69805 -1.25672 3.78813 0.405585
11 1 1.4221 4.9381 1.94449 1.94676 1.3943 0.559316
12 1 1.7033 4.86545 5.08019 -1.85811 4.58431 -3.1746
13 1 4.87957 1.61972 1.31492 -6.1544 -7.46807 -4.03833
14 1 5.34208 1.9452 4.7186 0.0330994 -1.11208 -6.36221
15 1 4.65669 4.76405 1.84501 -5.91867 2.45023 0.616966
16 1 4.94229 5.32231 4.86297 -3.58197 -5.6429 7.78346
ITEM: TIMESTEP
5000
ITEM: NUMBER OF ATOMS
16
ITEM: BOX BOUNDS xy xz yz pp pp pp
0.0000000000000000e+00 6.5999999999999996e+00 0.0000000000000000e+00
0.0000000000000000e+00 6.5999999999999996e+00 0.0000000000000000e+00
0.0000000000000000e+00 6.5999999999999996e+00 0.0000000000000000e+00
ITEM: ATOMS id type x y z fx fy fz
1 1 0.140326 0.10801 6.58022 -6.43462 -7.97948 1.94182
2 1 6.24441 0.119098 3.3816 2.14642 5.95396 -4.5721
3 1 0.284935 3.12156 0.0431825 -1.74855 -2.81157 -5.87176
4 1 6.34653 3.21281 3.16548 -0.356554 -5.1424 9.39924
5 1 3.48557 0.174437 0.0656684 1.45185 3.31936 3.54556
6 1 3.24385 6.39654 3.24355 7.53051 1.49154 -1.05183
7 1 3.46475 3.16092 0.0297947 -6.15058 -4.45651 7.08505
8 1 3.10091 3.44087 3.32532 -2.44454 -5.16955 -2.18198
9 1 1.83979 1.29955 1.77724 5.32274 -3.51339 4.86404
10 1 1.68301 1.57032 5.20957 -3.68812 9.17758 -6.30856
11 1 1.48491 4.77403 1.46455 7.4063 1.24678 -3.69891
12 1 1.70342 5.01358 4.81653 -6.82941 6.44504 -3.04836
13 1 5.13788 1.82275 1.41976 6.30857 -7.06326 0.574162
14 1 5.06244 1.86861 4.9523 -3.79558 1.93786 1.31497
15 1 4.96238 5.07359 1.58286 -1.48447 7.17307 -4.08982
16 1 4.61491 5.04331 5.14238 2.76603 -0.609025 2.09848
ITEM: TIMESTEP
6000
ITEM: NUMBER OF ATOMS
16
ITEM: BOX BOUNDS xy xz yz pp pp pp
0.0000000000000000e+00 6.5999999999999996e+00 0.0000000000000000e+00
0.0000000000000000e+00 6.5999999999999996e+00 0.0000000000000000e+00
0.0000000000000000e+00 6.5999999999999996e+00 0.0000000000000000e+00
ITEM: ATOMS id type x y z fx fy fz
1 1 6.57328 0.150192 0.274067 4.70629 -4.61566 -5.74371
2 1 6.4168 6.46769 3.06954 -1.78265 1.45762 -6.95208
3 1 6.52865 3.16374 0.0527308 3.17375 -4.43216 2.41894
4 1 0.207044 3.52917 3.27188 -5.71001 -9.23538 -3.76621
5 1 3.33126 6.50226 6.53167 1.84049 1.99031 -2.5204
6 1 3.24115 6.51484 3.18892 5.44908 -2.1492 -0.412518
7 1 3.31748 3.07592 6.34317 5.35526 0.234093 8.92263
8 1 3.41983 3.24481 3.44709 -1.00165 8.45759 -3.73069
9 1 1.78697 1.63016 1.76192 3.21233 1.11122 7.80858
10 1 1.58819 1.60291 4.93241 -9.23083 5.17793 6.10375
11 1 1.67578 5.05071 1.89601 -2.47211 0.0682654 -4.02973
12 1 1.46131 4.98069 5.05158 -1.71124 -2.77902 -5.29994
13 1 4.74009 1.99587 1.61922 2.37293 -7.95563 1.50321
14 1 5.034 1.45481 4.68773 -3.60952 7.43076 -0.193631
15 1 4.88874 5.02626 1.65542 -5.41776 6.72682 4.27297
16 1 5.18943 5.00997 5.01665 4.82566 -1.48757 1.61883
ITEM: TIMESTEP
7000
ITEM: NUMBER OF ATOMS
16
ITEM: BOX BOUNDS xy xz yz pp pp pp
0.0000000000000000e+00 6.5999999999999996e+00 0.0000000000000000e+00
0.0000000000000000e+00 6.5999999999999996e+00 0.0000000000000000e+00
0.0000000000000000e+00 6.5999999999999996e+00 0.0000000000000000e+00
ITEM: ATOMS id type x y z fx fy fz
1 1 0.0034981 0.00115484 6.64722 2.2381 -5.98111 3.74667
2 1 0.32214 6.6543 3.16991 3.61952 -6.75136 -0.399753
3 1 -0.0117929 3.27238 6.45246 -2.89186 1.467 -0.0495844
4 1 0.0585268 3.02443 3.25963 0.0479816 -0.779791 1.08563
5 1 3.22639 6.33491 6.41068 -2.99693 8.28951 1.02036
6 1 3.46255 0.105589 3.1751 3.60719 0.493369 1.57027
7 1 3.2457 3.37545 0.149874 -7.59193 2.78943 -4.67861
8 1 3.19378 3.41936 3.43861 6.26049 7.22501 -8.7585
9 1 1.55249 1.70406 1.83513 3.57355 6.13389 4.17586
10 1 1.8704 1.32873 5.10439 1.93233 7.42477 6.34402
11 1 1.41612 4.93313 1.45608 -0.460535 1.73167 1.89964
12 1 1.62008 4.71221 5.10902 5.46158 -1.74769 -7.00371
13 1 4.87707 1.83399 1.63273 -9.57462 0.674827 -2.20401
14 1 5.03536 1.86101 4.87609 6.41819 -6.77859 4.36174
15 1 4.86614 5.21786 1.69169 -9.87634 -9.89615 -7.7206
16 1 4.86154 5.02142 4.99138 0.233296 -4.29479 6.61056
ITEM: TIMESTEP
8000
ITEM: NUMBER OF ATOMS
16
ITEM: BOX BOUNDS xy xz yz pp pp pp
0.0000000000000000e+00 6.5999999999999996e+00 0.0000000000000000e+00
0.0000000000000000e+00 6.5999999999999996e+00 0.0000000000000000e+00
0.0000000000000000e+00 6.5999999999999996e+00 0.0000000000000000e+00
ITEM: ATOMS id type x y z fx fy fz
1 1 0.128272 0.024441 6.3183 -0.729512 1.49344 3.58329
2 1 3.93554e-05 0.187111 3.28504 3.13717 0.271265 -6.57562
3 1 0.240587 3.17362 0.0847635 1.57537 5.11103 -8.14278
4 1 6.5974 3.14339 3.18726 -0.742402 -4.5019 6.07489
5 1 3.21347 -0.0164335 0.138634 5.55063 3.49486 3.63518
6 1 3.11089 6.46734 3.5307 -0.856391 -3.03939 -2.71092
7 1 3.35526 3.21434 6.55863 -3.60421 -4.02497 1.32922
8 1 3.13308 3.43933 3.03315 5.02517 0.717914 4.96062
9 1 1.87963 1.72337 1.86678 -5.06693 7.18853 -1.06477
10 1 1.84734 1.82311 5.25664 -5.43931 4.44515 -1.82767
11 1 1.35622 5.13373 1.84711 -2.93147 -0.528394 -1.2102
12 1 1.79468 5.02179 4.95492 4.94908 -3.25259 5.34645
13 1 4.8438 1.79398 1.81175 5.77284 -4.22619 -9.67516
14 1 4.81776 1.51153 4.96483 -2.39328 0.241075 7.69786
15 1 4.65249 5.007 1.35 -4.14437 -1.80153 5.36501
16 1 5.22906 4.55236 4.61149 -0.102394 -1.58831 -6.78541
ITEM: TIMESTEP
9000
ITEM: NUMBER OF ATOMS
16
ITEM: BOX BOUNDS xy xz yz pp pp pp
0.0000000000000000e+00 6.5999999999999996e+00 0.0000000000000000e+00
0.0000000000000000e+00 6.5999999999999996e+00 0.0000000000000000e+00
0.0000000000000000e+00 6.5999999999999996e+00 0.0000000000000000e+00
ITEM: ATOMS id type x y z fx fy fz
1 1 0.224297 6.41555 6.49146 2.0603 5.46442 -2.17447
2 1 6.17662 6.38515 3.32158 6.13726 -5.07153 4.27012
3 1 6.64765 2.93113 0.120659 0.959876 0.571308 -2.77086
4 1 6.50647 3.13609 3.39218 5.40775 -2.02588 -9.51256
5 1 3.51778 6.56741 0.0942446 -7.35967 -5.09572 5.67356
6 1 3.30018 6.51655 3.46712 3.67205 -1.5423 1.18789
7 1 3.23729 3.25884 -0.0591721 -0.0296852 -1.04986 -0.160787
8 1 3.30547 3.713 3.28082 0.0972891 6.07026 1.70041
9 1 1.79916 1.66884 1.63303 -3.17714 3.15578 4.03576
10 1 1.77314 1.74191 4.71152 -8.3115 -3.58816 -0.554888
11 1 1.62944 5.39253 1.62898 6.89746 4.67625 1.13732
12 1 1.57697 4.71377 4.84137 -2.09659 -1.09208 1.52234
13 1 4.9743 1.80408 1.58746 -4.23904 -1.14069 2.4593
14 1 4.96181 1.4726 4.94896 1.27483 -2.78337 -6.67097
15 1 4.9926 5.18907 1.56909 -0.202229 3.91308 2.29631
16 1 4.77683 5.09348 5.1707 -1.09097 -0.461509 -2.43848
ITEM: TIMESTEP
10000
ITEM: NUMBER OF ATOMS
16
ITEM: BOX BOUNDS xy xz yz pp pp pp
0.0000000000000000e+00 6.5999999999999996e+00 0.0000000000000000e+00
0.0000000000000000e+00 6.5999999999999996e+00 0.0000000000000000e+00
0.0000000000000000e+00 6.5999999999999996e+00 0.0000000000000000e+00
ITEM: ATOMS id type x y z fx fy fz
1 1 6.54997 0.0781792 6.50857 2.34583 0.0915562 5.80637
2 1 0.0574517 0.107653 3.2781 -0.371523 -5.15786 -6.85022
3 1 0.137233 3.42915 6.64595 -3.05853 3.53273 0.69264
4 1 6.51355 3.4036 3.22961 3.25009 -5.64228 1.35082
5 1 3.38942 6.40013 0.0242382 2.50705 7.61597 -3.26227
6 1 3.168 0.157935 3.35922 -1.48649 5.25109 1.52346
7 1 3.47181 3.11943 6.5428 5.8563 4.66659 3.32174
8 1 3.26556 3.44288 3.40392 -0.129857 3.43663 -6.33999
9 1 1.50182 1.75243 1.96313 -5.3392 2.25384 -4.91428
10 1 1.78191 1.47155 5.06694 3.27726 -2.39893 6.28431
11 1 1.58595 4.66044 1.51826 0.646643 0.0843226 -2.90211
12 1 1.52682 4.86107 4.75153 0.340876 -3.16584 -0.110295
13 1 5.16117 1.69718 1.70419 -4.77532 1.1256 -3.04491
14 1 5.00742 1.7064 4.74683 -1.55969 2.59735 1.69808
15 1 4.73766 4.98844 1.46951 5.39035 -7.91897 7.77972
16 1 4.94429 4.92355 5.1872 -6.89379 -6.37182 -1.03308
ITEM: TIMESTEP
11000
ITEM: NUMBER OF ATOMS
16
ITEM: BOX BOUNDS xy xz yz pp pp pp
0.0000000000000000e+00 6.5999999999999996e+00 0.0000000000000000e+00
0.0000000000000000e+00 6.5999999999999996e+00 0.0000000000000000e+00
0.0000000000000000e+00 6.5999999999999996e+00 0.0000000000000000e+00
ITEM: ATOMS id type x y z fx fy fz
1 1 0.214972 0.0679114 6.37359 -6.81486 5.62754 -3.71846
2 1 6.60209 6.57538 3.17018 7.46106 7.39037 -0.871371
3 1 6.22441 3.30121 0.0654611 -3.6942 -4.99571 -2.88931
4 1 6.62556 3.3691 3.22925 -2.54463 -6.16897 7.2036
5 1 3.17845 0.183121 0.257013 0.296495 5.15177 0.235377
6 1 3.36429 0.0141378 3.45318 -5.44782 1.14544 -7.93331
7 1 3.59634 3.26576 0.108765 -3.04743 -6.4957 -0.644691
8 1 3.29434 3.30658 3.11028 0.479107 7.28731 6.78645
9 1 1.44612 1.494 1.59854 -1.23506 -4.75705 -7.78154
10 1 1.34883 2.01129 4.92093 8.71285 2.39529 4.03238
11 1 1.72297 4.93021 1.94212 -4.50419 -1.46251 -4.51202
12 1 1.88174 4.91265 5.08362 4.77465 4.25966 -4.89533
13 1 5.12943 1.46961 1.52279 -4.66966 -5.31318 8.51022
14 1 4.77705 1.679 4.86898 3.75533 -2.3489 2.52168
15 1 4.79797 4.85303 1.62122 3.6858 3.04695 7.25308
16 1 5.19546 4.76701 4.87407 2.79258 -4.7623 -3.29676
ITEM: TIMESTEP
12000
ITEM: NUMBER OF ATOMS
16
ITEM: BOX BOUNDS xy xz yz pp pp pp
0.0000000000000000e+00 6.5999999999999996e+00 0.0000000000000000e+00
0.0000000000000000e+00 6.5999999999999996e+00 0.0000000000000000e+00
0.0000000000000000e+00 6.5999999999999996e+00 0.0000000000000000e+00
ITEM: ATOMS id type x y z fx fy fz
1 1 6.49843 0.280479 -0.0914844 -6.60507 -1.74349 -4.77333
2 1 -0.0382846 6.61445 3.23589 -6.62086 5.10537 2.9137
3 1 0.0373631 3.4216 6.22304 -1.60168 -6.99538 2.71002
4 1 0.0812551 3.25843 3.04856 -0.662261 8.77494 -3.51154
5 1 3.50073 6.38663 0.188889 2.15227 -3.40533 -2.8036
6 1 3.27634 0.0352263 3.539 5.73138 0.703248 1.5309
7 1 3.38406 3.20337 0.0663186 -6.78326 4.69838 -1.42432
8 1 3.25809 3.38157 3.3923 3.17804 0.807597 -6.01028
9 1 1.4175 1.81977 1.49134 -0.908482 4.87661 7.22467
10 1 1.7667 1.71774 5.24211 2.58092 -4.88846 4.0198
11 1 1.78477 5.12272 1.68935 0.839072 2.51706 4.27504
12 1 1.57862 4.94955 5.10588 -4.46635 -5.42643 -3.2113
13 1 4.69293 1.29403 1.89014 6.24172 -1.43314 2.19442
14 1 4.96464 1.62223 5.1196 -3.81507 -4.43521 -2.9374
15 1 4.94709 4.67621 1.5034 4.56746 -5.3003 4.89643
16 1 5.04979 5.01601 4.55566 6.17219 6.14454 -5.09321
ITEM: TIMESTEP
13000
ITEM: NUMBER OF ATOMS
16
ITEM: BOX BOUNDS xy xz yz pp pp pp
0.0000000000000000e+00 6.5999999999999996e+00 0.0000000000000000e+00
0.0000000000000000e+00 6.5999999999999996e+00 0.0000000000000000e+00
0.0000000000000000e+00 6.5999999999999996e+00 0.0000000000000000e+00
ITEM: ATOMS id type x y z fx fy fz
1 1 0.200131 0.158715 0.0614025 -0.226053 -2.2837 6.39455
2 1 0.0889266 6.44857 3.40397 -3.99706 1.91062 2.6834
3 1 6.52808 3.3449 6.57479 0.859939 3.77843 4.44027
4 1 0.142732 3.16517 2.93717 -6.95358 -2.60857 3.00994
5 1 3.15326 6.56819 0.18639 -4.77857 -2.42258 -1.33148
6 1 3.28626 6.55701 3.41262 -2.65816 0.795163 -2.92394
7 1 3.42279 3.25522 6.37782 -2.3149 -0.545146 5.99659
8 1 3.36298 3.70581 3.02258 -1.60098 0.162683 -4.8815
9 1 1.55456 1.65931 1.90637 9.71 0.667265 -3.88455
10 1 1.75455 1.9871 5.14946 -6.75262 -6.28108 -3.46087
11 1 1.43377 4.93112 1.79594 8.05427 7.52611 -4.9751
12 1 1.46651 4.74846 4.92692 -2.34589 6.39256 -1.58921
13 1 4.97996 1.31148 1.71511 -6.9357 3.82279 -3.58305
14 1 5.01961 1.70791 4.71797 4.08664 -2.38683 7.37786
15 1 5.0368 4.91476 1.4095 7.30069 -2.70289 -0.0379261
16 1 4.7691 4.93628 5.20199 8.55198 -5.82483 -3.23498
ITEM: TIMESTEP
14000
ITEM: NUMBER OF ATOMS
16
ITEM: BOX BOUNDS xy xz yz pp pp pp
0.0000000000000000e+00 6.5999999999999996e+00 0.0000000000000000e+00
0.0000000000000000e+00 6.5999999999999996e+00 0.0000000000000000e+00
0.0000000000000000e+00 6.5999999999999996e+00 0.0000000000000000e+00
ITEM: ATOMS id type x y z fx fy fz
1 1 -0.00793105 0.15856 -0.0827589 7.55964 3.38701 8.09854
2 1 6.44329 0.166449 3.44189 -3.46675 -3.80176 -4.10542
3 1 0.0114637 3.45081 0.159607 -1.92725 -0.0846318 -5.05773
4 1 0.0991223 3.24365 3.52609 2.44373 -0.633022 2.03226
5 1 3.39989 -0.0372898 6.25284 7.14915 3.99178 5.50515
6 1 3.17329 0.06953 3.37801 -0.680997 -2.2615 -6.66096
7 1 3.13256 3.33819 6.3985 0.7442 -5.88977 4.81778
8 1 3.38578 3.30366 3.13408 6.69099 -8.47611 -4.47279
9 1 1.69971 1.35343 1.68247 -2.29267 -1.33168 -2.9751
10 1 1.33908 1.55447 5.12728 -3.94944 -5.82013 0.822828
11 1 1.83675 4.86051 1.49214 0.425132 -1.83035 8.22361
12 1 1.60855 4.65577 4.83206 -2.91957 8.20155 -2.14898
13 1 5.06595 1.59954 1.69664 -6.27084 2.08359 6.04909
14 1 4.92788 1.85002 4.94859 6.48583 4.37291 0.777894
15 1 5.00005 4.85827 1.95313 -5.79325 2.06763 -5.9338
16 1 5.08458 5.17441 4.85943 -4.19791 6.02449 -4.97239
ITEM: TIMESTEP
15000
ITEM: NUMBER OF ATOMS
16
ITEM: BOX BOUNDS xy xz yz pp pp pp
0.0000000000000000e+00 6.5999999999999996e+00 0.0000000000000000e+00
0.0000000000000000e+00 6.5999999999999996e+00 0.0000000000000000e+00
0.0000000000000000e+00 6.5999999999999996e+00 0.0000000000000000e+00
ITEM: ATOMS id type x y z fx fy fz
1 1 0.0779526 0.0655615 -0.0111586 1.9605 -3.9611 4.86803
2 1 6.48343 6.54814 3.48164 3.82413 1.50101 -4.97793
3 1 6.52838 3.17143 0.0268496 3.17295 -3.87818 7.37421
4 1 6.52347 3.28439 3.35691 -2.96084 -1.39953 2.87951
5 1 3.36368 6.47984 0.0723686 -5.08449 2.85085 3.58189
6 1 3.24746 0.171801 3.12428 -5.08301 -3.75935 6.95948
7 1 3.44648 3.12313 0.205697 0.434268 5.81537 -6.13682
8 1 3.21239 3.49145 3.10273 -1.06734 3.04565 -4.98073
9 1 1.64076 1.70561 1.8708 0.162187 1.03002 -3.62183
10 1 1.62777 1.86761 4.91371 5.18326 -0.866837 7.08252
11 1 1.82626 4.97869 1.46611 -5.35225 5.558 7.49939
12 1 1.61887 5.24274 5.07046 3.7308 -1.53143 -4.21747
13 1 4.91937 1.45745 1.63903 0.457813 -6.14916 -6.89942
14 1 4.59347 1.49131 5.25745 3.75878 -3.29646 4.9494
15 1 5.37591 4.91002 1.27889 -3.47486 5.18003 -7.15434
16 1 4.91434 4.81081 4.74422 0.338087 -0.138888 -7.20588
ITEM: TIMESTEP
16000
ITEM: NUMBER OF ATOMS
16
ITEM: BOX BOUNDS xy xz yz pp pp pp
0.0000000000000000e+00 6.5999999999999996e+00 0.0000000000000000e+00
0.0000000000000000e+00 6.5999999999999996e+00 0.0000000000000000e+00
0.0000000000000000e+00 6.5999999999999996e+00 0.0000000000000000e+00
ITEM: ATOMS id type x y z fx fy fz
1 1 6.2943 0.161658 6.62092 -4.35739 2.96109 -4.59219
2 1 6.42261 0.13198 3.11549 7.78023 -2.64264 3.1931
3 1 0.214387 3.17151 6.46856 -5.43627 4.44665 -4.97677
4 1 0.0817067 3.27111 3.23379 8.37467 -0.916507 -1.74698
5 1 3.3707 6.56122 0.0303997 4.71392 5.11445 -0.040412
6 1 3.09896 0.176421 3.264 -6.33714 2.26765 7.39482
7 1 3.43071 3.21402 0.0423146 2.04323 -6.87157 -2.57673
8 1 3.50858 3.24335 3.32202 -3.65629 -8.10139 -4.80143
9 1 1.55804 1.55768 1.26701 -3.17399 -6.21665 8.28404
10 1 1.36765 1.6546 5.01437 -1.33846 -4.19276 1.45842
11 1 1.88383 4.81248 1.76585 2.32841 6.2645 0.881405
12 1 1.61585 5.01926 5.08507 5.75176 3.56827 4.23762
13 1 4.91951 1.58062 1.8755 4.2968 -4.63749 -1.70674
14 1 5.0623 1.67015 5.13087 -4.08654 6.21308 -3.13498
15 1 5.14748 5.02545 1.7069 -4.59742 -3.30938 3.13228
16 1 4.82338 4.94849 4.85693 -2.30552 6.05268 -5.00545
ITEM: TIMESTEP
17000
ITEM: NUMBER OF ATOMS
16
ITEM: BOX BOUNDS xy xz yz pp pp pp
0.0000000000000000e+00 6.5999999999999996e+00 0.0000000000000000e+00
0.0000000000000000e+00 6.5999999999999996e+00 0.0000000000000000e+00
0.0000000000000000e+00 6.5999999999999996e+00 0.0000000000000000e+00
ITEM: ATOMS id type x y z fx fy fz
1 1 0.271358 6.4358 0.0356891 -8.0093 -5.30571 -4.12307
2 1 6.54559 6.4861 3.46542 2.78507 -6.71699 -5.6957
3 1 0.177126 3.57687 6.21454 -2.13214 -0.333505 9.22832
4 1 6.55844 3.25613 3.22379 -1.42604 0.628331 4.25326
5 1 3.03611 0.164594 6.51632 8.12517 -0.0898124 5.87066
6 1 3.41566 0.261486 3.4369 -5.64795 -6.66175 -7.68522
7 1 3.46017 3.27589 0.180184 2.72535 -5.8821 4.98113
8 1 3.26876 3.45236 3.31937 4.02516 8.68843 6.82777
9 1 1.56769 1.1586 1.72679 -7.04843 6.16581 8.2476
10 1 1.34958 1.44407 4.84703 9.24671 9.07805 -5.66612
11 1 1.75898 4.61376 1.58334 -6.24031 -4.50408 -5.68819
12 1 1.61098 5.14647 4.81765 0.4811 2.31366 -6.62107
13 1 4.75179 1.60612 1.58593 3.50235 -1.07529 1.14752
14 1 4.97043 1.87141 4.88343 2.07593 0.653864 -7.15779
15 1 5.09774 4.95601 1.84319 -3.39024 -2.32999 5.38183
16 1 4.95961 5.09433 5.12043 0.927553 5.37109 -3.30093
ITEM: TIMESTEP
18000
ITEM: NUMBER OF ATOMS
16
ITEM: BOX BOUNDS xy xz yz pp pp pp
0.0000000000000000e+00 6.5999999999999996e+00 0.0000000000000000e+00
0.0000000000000000e+00 6.5999999999999996e+00 0.0000000000000000e+00
0.0000000000000000e+00 6.5999999999999996e+00 0.0000000000000000e+00
ITEM: ATOMS id type x y z fx fy fz
1 1 6.51469 0.370539 6.45033 8.86697 -9.98411 3.08176
2 1 6.53454 0.0840393 3.38015 6.35978 -2.33932 6.41601
3 1 0.0511193 3.27887 0.201071 5.61694 -1.71134 -4.46611
4 1 0.0612462 3.35707 3.33204 1.73799 4.6776 6.55896
5 1 3.51077 6.54596 6.62322 -4.83187 -0.712468 -1.58156
6 1 2.8368 6.21706 3.2545 -1.28079 -5.46351 -1.03663
7 1 3.39937 3.2929 6.34193 1.59904 -1.16933 -0.909302
8 1 3.31775 3.02544 3.19539 -0.488041 -2.23689 3.85256
9 1 1.70551 1.57393 1.61932 -2.19007 2.80197 -3.15616
10 1 1.62259 1.92718 4.92829 -2.66158 2.9922 0.740441
11 1 1.54818 4.92143 1.39625 -1.93062 2.07398 -3.00889
12 1 1.79331 5.0359 5.08371 0.833471 1.99042 -1.7887
13 1 5.23445 1.56604 1.81481 -6.9617 4.60915 -4.26916
14 1 4.85362 1.81832 4.88895 -3.38918 4.5699 6.5247
15 1 4.94315 4.81114 1.85132 3.85265 -7.50253 -1.83674
16 1 4.8729 4.97419 5.03873 -5.13297 7.40428 -5.1212
ITEM: TIMESTEP
19000
ITEM: NUMBER OF ATOMS
16
ITEM: BOX BOUNDS xy xz yz pp pp pp
0.0000000000000000e+00 6.5999999999999996e+00 0.0000000000000000e+00
0.0000000000000000e+00 6.5999999999999996e+00 0.0000000000000000e+00
0.0000000000000000e+00 6.5999999999999996e+00 0.0000000000000000e+00
ITEM: ATOMS id type x y z fx fy fz
1 1 6.43666 0.191941 0.0106461 -0.112489 2.76747 1.38746
2 1 0.149041 6.49136 3.45687 1.36858 0.309786 -7.84305
3 1 -0.140028 3.3264 6.52804 1.29437 -1.63147 -0.509313
4 1 6.44179 3.2145 3.40881 -5.52926 -2.18297 2.19117
5 1 3.19746 6.50596 6.48474 -5.8451 -0.634617 5.041
6 1 3.32097 0.0131655 3.07796 4.15294 -4.32155 7.56328
7 1 3.39872 3.27164 0.147734 4.06818 3.34398 -6.96945
8 1 3.21442 3.0856 3.37968 -0.703852 1.00451 0.915457
9 1 1.79244 1.82818 1.59978 0.488256 2.28598 -1.25564
10 1 1.64472 1.58937 4.82231 -0.185052 -3.03671 -1.97494
11 1 1.62883 5.0658 1.76339 3.66857 1.99642 0.55659
12 1 1.66018 4.70503 4.93279 -7.56237 2.25297 3.01156
13 1 5.12357 1.4907 1.76044 5.3158 4.16161 2.90683
14 1 4.83974 1.70046 5.0719 -6.66777 -9.18337 -6.91984
15 1 5.1112 4.96798 1.63142 1.92811 2.79549 0.280708
16 1 4.98029 5.35193 4.72349 4.32109 0.0724857 1.61818
ITEM: TIMESTEP
20000
ITEM: NUMBER OF ATOMS
16
ITEM: BOX BOUNDS xy xz yz pp pp pp
0.0000000000000000e+00 6.5999999999999996e+00 0.0000000000000000e+00
0.0000000000000000e+00 6.5999999999999996e+00 0.0000000000000000e+00
0.0000000000000000e+00 6.5999999999999996e+00 0.0000000000000000e+00
ITEM: ATOMS id type x y z fx fy fz
1 1 0.140459 6.56031 0.405021 -3.09631 -1.78156 -5.29771
2 1 6.39364 0.197651 3.38468 3.94967 -3.44184 1.2159
3 1 0.166214 3.36136 0.00579887 8.27074 -5.38397 -5.38525
4 1 6.33717 3.21407 3.41342 -3.94343 -6.56008 -6.76425
5 1 3.18672 0.222318 0.163771 3.02532 4.27523 -1.4468
6 1 3.03695 6.5703 3.48588 2.24416 4.44383 -1.94458
7 1 3.5446 3.11934 6.24293 -5.5195 4.38537 0.442048
8 1 3.3123 3.38046 3.1587 5.21565 4.98695 -2.95226
9 1 1.64506 1.9382 1.6371 -2.55397 5.57713 9.01413
10 1 1.6259 1.56342 5.05854 2.63068 -4.39691 6.32623
11 1 1.69499 5.08643 1.46311 -2.14101 -1.02359 2.42885
12 1 1.67971 4.80765 4.54608 -2.68643 0.579513 5.26767
13 1 5.00538 1.50977 1.64071 -2.31417 -0.748943 -0.15717
14 1 4.95606 1.43947 5.09584 -0.705935 0.803348 -2.19383
15 1 4.77839 4.73856 1.66629 0.397771 0.231115 7.21937
16 1 5.29644 5.0907 4.83213 -2.77323 -1.94559 -5.77233
ITEM: TIMESTEP
21000
ITEM: NUMBER OF ATOMS
16
ITEM: BOX BOUNDS xy xz yz pp pp pp
0.0000000000000000e+00 6.5999999999999996e+00 0.0000000000000000e+00
0.0000000000000000e+00 6.5999999999999996e+00 0.0000000000000000e+00
0.0000000000000000e+00 6.5999999999999996e+00 0.0000000000000000e+00
ITEM: ATOMS id type x y z fx fy fz
1 1 0.0139296 0.111017 0.128061 1.04676 -0.858313 -5.94832
2 1 6.53155 6.45415 3.24401 1.94318 3.30998 -4.47417
3 1 -0.0504847 3.10444 6.55455 -5.51317 -4.03723 6.46828
4 1 6.52306 3.36712 3.27042 2.88844 0.377255 -4.90799
5 1 3.51189 0.187805 6.53864 -3.79303 5.01053 -1.29696
6 1 3.04825 6.49102 3.22945 -1.78175 8.97668 6.03932
7 1 3.30511 3.4733 6.67055 8.44209 -3.29495 -2.20257
8 1 3.49174 3.23432 3.28999 2.8907 -2.01354 -4.26968
9 1 1.61608 1.65107 1.60992 -5.28859 4.02477 6.34416
10 1 1.64533 1.68013 4.78214 -3.35582 -0.802611 -0.587258
11 1 1.71103 4.66479 2.06258 -2.04462 4.15443 -1.27538
12 1 1.66764 5.08225 4.9861 -5.18347 -2.6899 -0.227278
13 1 4.74961 1.63001 1.60056 8.72634 -0.654008 -1.95954
14 1 5.10396 1.67768 4.76243 6.92991 -3.96759 -0.360825
15 1 5.15138 4.83375 1.67321 -5.00857 -3.25675 2.05603
16 1 4.77992 5.15715 4.99739 -0.898405 -4.27875 6.60219
ITEM: TIMESTEP
22000
ITEM: NUMBER OF ATOMS
16
ITEM: BOX BOUNDS xy xz yz pp pp pp
0.0000000000000000e+00 6.5999999999999996e+00 0.0000000000000000e+00
0.0000000000000000e+00 6.5999999999999996e+00 0.0000000000000000e+00
0.0000000000000000e+00 6.5999999999999996e+00 0.0000000000000000e+00
ITEM: ATOMS id type x y z fx fy fz
1 1 0.150484 6.26904 0.0882539 5.34137 3.14356 -1.38978
2 1 6.53625 0.241773 3.43075 4.87007 -6.16125 1.1473
3 1 6.27424 3.06389 -0.000135131 7.51294 -6.14656 3.8436
4 1 0.101395 3.26176 3.19341 0.112384 1.17142 -1.8653
5 1 3.19748 0.140403 6.45761 7.24296 -6.07122 0.418215
6 1 3.04805 0.235344 3.28198 0.268368 3.02843 3.43833
7 1 3.41666 3.45679 0.120207 -6.1854 7.61812 4.55963
8 1 3.60577 3.44422 3.28067 -2.9799 5.55422 1.02563
9 1 2.09533 1.59649 1.57489 -1.33266 -2.03118 3.54108
10 1 1.70495 1.42674 4.93723 -0.916307 5.4479 -5.00813
11 1 1.66369 4.93896 1.66496 -1.3073 -7.57567 -1.57404
12 1 1.43445 4.53555 4.98888 -7.00741 4.91339 -7.35303
13 1 4.8579 1.60932 1.62337 -2.50527 -0.323158 8.00118
14 1 4.91888 1.76884 5.03859 -2.85218 -4.30374 -7.45571
15 1 5.06796 5.16046 1.65804 1.33214 -2.16454 2.60548
16 1 4.72651 5.05042 4.8613 -1.5938 3.90027 -3.93447
ITEM: TIMESTEP
23000
ITEM: NUMBER OF ATOMS
16
ITEM: BOX BOUNDS xy xz yz pp pp pp
0.0000000000000000e+00 6.5999999999999996e+00 0.0000000000000000e+00
0.0000000000000000e+00 6.5999999999999996e+00 0.0000000000000000e+00
0.0000000000000000e+00 6.5999999999999996e+00 0.0000000000000000e+00
ITEM: ATOMS id type x y z fx fy fz
1 1 0.384835 6.42297 0.0702645 6.10134 3.24709 -5.22089
2 1 6.50503 0.0516432 3.40192 0.693135 -1.25921 -4.76763
3 1 0.0588163 3.38278 -0.0653433 4.06824 0.675487 6.46718
4 1 6.26628 3.09724 3.35077 0.51124 1.88243 3.27853
5 1 3.58908 0.0193273 6.45497 0.0181048 -1.29257 3.20787
6 1 3.14969 0.13334 3.22615 4.09922 6.52934 -8.37346
7 1 3.32478 3.29042 6.36034 -1.1507 4.46719 1.51693
8 1 3.33821 3.7297 3.38909 3.71303 -5.52182 1.3306
9 1 1.50212 1.60458 1.52224 -4.4031 1.91496 5.39164
10 1 1.66232 1.75975 4.91222 -4.52302 5.45334 4.70493
11 1 1.58556 4.94911 1.7389 -6.3701 -6.73008 1.72501
12 1 1.71041 5.04334 5.076 5.45639 -3.33854 -1.73886
13 1 4.77447 1.50768 1.76394 2.39337 -7.86825 2.09675
14 1 5.07799 1.57026 5.01715 -4.91246 6.86496 -7.51498
15 1 4.87553 4.73591 1.58274 -3.78212 -0.0422667 -0.424159
16 1 4.99487 4.90196 4.99864 -1.91258 -4.98208 -1.67948
ITEM: TIMESTEP
24000
ITEM: NUMBER OF ATOMS
16
ITEM: BOX BOUNDS xy xz yz pp pp pp
0.0000000000000000e+00 6.5999999999999996e+00 0.0000000000000000e+00
0.0000000000000000e+00 6.5999999999999996e+00 0.0000000000000000e+00
0.0000000000000000e+00 6.5999999999999996e+00 0.0000000000000000e+00
ITEM: ATOMS id type x y z fx fy fz
1 1 6.35428 6.58191 0.464972 7.41181 -3.67973 3.61036
2 1 0.0260895 6.22344 3.18578 7.18071 5.67614 3.65381
3 1 0.0735361 3.35634 0.0589582 -5.07428 -6.43195 -1.00361
4 1 0.291367 3.11167 3.4205 -0.702493 5.64101 0.866859
5 1 3.2893 0.172817 6.44898 6.85354 2.29833 6.132
6 1 3.32346 0.0818016 3.05999 5.76513 0.240555 -4.27598
7 1 2.75915 3.49679 0.0495717 -3.6974 -2.29803 -0.79211
8 1 3.63058 3.17771 3.30625 4.61725 6.58236 -5.92483
9 1 1.79096 1.44179 1.22257 -3.42121 -7.93597 -4.76151
10 1 1.72518 1.62332 4.88931 6.53442 6.24678 -4.11587
11 1 1.93236 4.93344 1.82309 -8.77663 -8.71819 -5.15912
12 1 1.38846 5.11591 5.0997 -1.62028 6.13453 -3.23809
13 1 5.04349 1.89218 1.7429 -3.36106 0.63642 3.84662
14 1 5.27586 1.84178 4.90739 -9.00055 -3.36309 7.879
15 1 4.687 4.86422 1.53965 -1.8925 -6.87596 -2.72153
16 1 4.60893 4.88489 4.98038 -0.816455 5.84679 6.004
ITEM: TIMESTEP
25000
ITEM: NUMBER OF ATOMS
16
ITEM: BOX BOUNDS xy xz yz pp pp pp
0.0000000000000000e+00 6.5999999999999996e+00 0.0000000000000000e+00
0.0000000000000000e+00 6.5999999999999996e+00 0.0000000000000000e+00
0.0000000000000000e+00 6.5999999999999996e+00 0.0000000000000000e+00
ITEM: ATOMS id type x y z fx fy fz