ITEM: TIMESTEP
0
ITEM: NUMBER OF ATOMS
16
ITEM: BOX BOUNDS xy xz yz pp pp pp
0.0000000000000000e+00 6.5999999999999996e+00 0.0000000000000000e+00
0.0000000000000000e+00 6.5999999999999996e+00 0.0000000000000000e+00
0.0000000000000000e+00 6.5999999999999996e+00 0.0000000000000000e+00
ITEM: ATOMS id type x y z fx fy fz
1 1 0 0 0 -2.35897 -0.253686 0.0521317
2 1 0 0 3.3 -1.51942 0.402077 -1.98896
3 1 0 3.3 0 -2.3877 -3.10209 2.60662
4 1 0 3.3 3.3 -1.09572 -0.341442 -0.439181
5 1 3.3 0 0 -3.52657 -2.61998 2.19152
6 1 3.3 0 3.3 1.76933 -0.724476 3.60202
7 1 3.3 3.3 0 -3.60434 2.42381 -0.0942724
8 1 3.3 3.3 3.3 -3.26782 -0.290637 -1.37116
9 1 1.65 1.65 1.65 0.942536 -1.17235 1.93972
10 1 1.65 1.65 4.95 -1.63381 1.83097 1.22436
11 1 1.65 4.95 1.65 1.21732 1.12886 -3.33872
12 1 1.65 4.95 4.95 3.93225 -3.81672 -1.34598
13 1 4.95 1.65 1.65 3.28032 0.768317 -2.06498
14 1 4.95 1.65 4.95 2.74356 2.15672 -3.58512
15 1 4.95 4.95 1.65 2.36741 0.577136 2.39282
16 1 4.95 4.95 4.95 3.14162 3.03349 0.219182
ITEM: TIMESTEP
1000
ITEM: NUMBER OF ATOMS
16
ITEM: BOX BOUNDS xy xz yz pp pp pp
0.0000000000000000e+00 6.5999999999999996e+00 0.0000000000000000e+00
0.0000000000000000e+00 6.5999999999999996e+00 0.0000000000000000e+00
0.0000000000000000e+00 6.5999999999999996e+00 0.0000000000000000e+00
ITEM: ATOMS id type x y z fx fy fz
1 1 0.0940245 6.42831 6.67059 -0.109603 2.43931 0.44236
2 1 -0.021273 6.56673 3.25329 -3.14461 -1.56492 -0.936745
3 1 -0.0308445 3.28367 6.61438 3.49483 -3.16408 -1.22114
4 1 -0.0921436 3.27072 3.3065 1.61761 4.25259 -1.88583
5 1 3.43464 0.0240798 6.63246 -3.76955 2.44263 -2.20989
6 1 3.31444 6.63314 3.40651 3.59696 -2.70185 -0.272741
7 1 3.29725 3.37932 0.04649 -3.59742 -2.61649 -1.44963
8 1 3.25845 3.3915 3.37438 -3.14497 -1.64692 3.11933
9 1 1.72979 1.65403 1.58912 2.11742 -3.07852 0.278446
10 1 1.74263 1.6744 4.91349 0.802614 4.03254 0.485742
11 1 1.50876 4.92701 1.71933 1.31443 1.56361 2.0676
12 1 1.58562 4.95366 5.01248 -3.58961 -3.31907 1.17938
13 1 4.96746 1.82193 1.63293 0.623421 1.55122 -0.104877
14 1 5.07147 1.53744 4.88054 -1.96587 2.62351 -3.04945
15 1 4.82231 4.95381 1.55648 3.49425 1.47418 4.17547
16 1 4.91742 4.90027 4.79104 2.2601 -2.28773 -0.618015
ITEM: TIMESTEP
2000
ITEM: NUMBER OF ATOMS
16
ITEM: BOX BOUNDS xy xz yz pp pp pp
0.0000000000000000e+00 6.5999999999999996e+00 0.0000000000000000e+00
0.0000000000000000e+00 6.5999999999999996e+00 0.0000000000000000e+00
0.0000000000000000e+00 6.5999999999999996e+00 0.0000000000000000e+00
ITEM: ATOMS id type x y z fx fy fz
1 1 0.0479605 6.62469 0.0510587 -1.12309 -1.22185 -0.903082
2 1 0.0618685 6.65438 3.24798 -0.157084 1.47805 -0.110748
3 1 0.0742971 3.32231 0.137175 0.522235 -2.35985 -4.03192
4 1 0.0675391 3.23474 3.44054 0.391697 -0.985339 0.40022
5 1 3.2615 0.0282479 6.43148 0.281416 0.950802 -3.21383
6 1 3.31834 0.00777621 3.24406 0.170652 0.103369 1.5887
7 1 3.17351 3.33161 0.020037 -2.87383 -3.02852 -3.47332
8 1 3.31679 3.28018 3.21579 -0.18129 -0.424004 3.02434
9 1 1.62272 1.60525 1.7191 2.03332 0.198091 0.430532
10 1 1.73661 1.67914 5.05648 -3.12381 -2.02369 -2.95405
11 1 1.67527 4.95716 1.65765 2.32566 3.46457 3.0972
12 1 1.64742 5.01827 4.97286 0.0733145 -3.84997 2.15378
13 1 4.77279 1.662 1.72723 1.2302 1.22208 -2.87366
14 1 4.93319 1.61678 4.98544 -0.308759 4.1187 1.71598
15 1 4.90616 4.89464 1.51592 -2.43865 3.02023 0.920442
16 1 4.98403 4.88281 4.77718 3.17803 -0.662651 4.22943
ITEM: TIMESTEP
3000
ITEM: NUMBER OF ATOMS
16
ITEM: BOX BOUNDS xy xz yz pp pp pp
0.0000000000000000e+00 6.5999999999999996e+00 0.0000000000000000e+00
0.0000000000000000e+00 6.5999999999999996e+00 0.0000000000000000e+00
0.0000000000000000e+00 6.5999999999999996e+00 0.0000000000000000e+00
ITEM: ATOMS id type x y z fx fy fz
1 1 6.58064 6.57811 0.107015 -2.12964 -0.608784 3.0631
2 1 0.00570044 0.132647 3.39683 -3.65108 -1.09963 -2.45987
3 1 6.5184 3.33693 6.57705 2.83509 -1.17054 -0.778014
4 1 0.0503623 3.35731 3.22293 -1.19799 -0.81426 3.42786
5 1 3.33547 0.0332764 6.53429 -0.867384 -1.02133 -1.73747
6 1 3.23239 6.58088 3.29946 3.19616 -0.688198 0.901403
7 1 3.25229 3.292 0.0550301 1.38714 -0.979623 -1.04929
8 1 3.3404 3.24384 3.26862 0.248735 2.28887 -0.608149
9 1 1.69122 1.54887 1.58288 -0.448718 1.18131 -0.170276
10 1 1.73203 1.66594 4.88513 3.39655 3.26535 -0.738488
11 1 1.6301 5.0115 1.60273 -1.04776 -2.41582 -1.21875
12 1 1.55335 4.93216 5.05536 -1.78921 -0.849825 0.843921
13 1 5.14451 1.53456 1.65529 -2.2192 2.07155 0.156175
14 1 4.97695 1.74006 4.938 0.666522 -2.42548 1.23709
15 1 4.92829 4.8208 1.66342 -2.34007 4.93988 -3.14552
16 1 4.82791 4.99112 4.95596 3.96085 -1.67346 2.27626
ITEM: TIMESTEP
4000
ITEM: NUMBER OF ATOMS
16
ITEM: BOX BOUNDS xy xz yz pp pp pp
0.0000000000000000e+00 6.5999999999999996e+00 0.0000000000000000e+00
0.0000000000000000e+00 6.5999999999999996e+00 0.0000000000000000e+00
0.0000000000000000e+00 6.5999999999999996e+00 0.0000000000000000e+00
ITEM: ATOMS id type x y z fx fy fz
1 1 6.59211 6.45619 6.60845 0.338805 0.428425 -4.02945
2 1 6.58064 6.6361 3.25257 0.364431 -1.3679 0.288207
3 1 6.65565 3.14187 0.0871627 -0.628249 1.02648 2.73147
4 1 0.0578337 3.36923 3.34558 1.17558 -0.86703 1.13638
5 1 3.27178 6.61339 0.0746688 -0.00995449 0.788005 2.88632
6 1 3.26453 0.0549751 3.31477 1.28389 -0.541774 3.20002
7 1 3.31905 3.19222 0.0871876 -0.16619 -1.54485 -3.28425
8 1 3.33338 3.33281 3.33017 3.12477 0.405953 0.853896
9 1 1.55304 1.63865 1.55953 2.63187 3.04536 -2
10 1 1.73122 1.59579 4.80106 -0.635495 1.82571 0.320939
11 1 1.52023 4.95362 1.81948 0.950049 0.632269 0.208749
12 1 1.68883 4.90935 4.99186 -0.874662 2.15541 -1.33542
13 1 4.89255 1.63556 1.44454 -2.8964 -3.76745 -1.79066
14 1 5.14014 1.82505 4.83609 0.18945 -0.410019 -3.29277
15 1 4.80857 4.85059 1.72057 -2.95044 1.16959 0.428239
16 1 4.99042 5.19462 4.92629 -1.89746 -2.97819 3.67832
ITEM: TIMESTEP
5000
ITEM: NUMBER OF ATOMS
16
ITEM: BOX BOUNDS xy xz yz pp pp pp
0.0000000000000000e+00 6.5999999999999996e+00 0.0000000000000000e+00
0.0000000000000000e+00 6.5999999999999996e+00 0.0000000000000000e+00
0.0000000000000000e+00 6.5999999999999996e+00 0.0000000000000000e+00
ITEM: ATOMS id type x y z fx fy fz
1 1 6.68191 6.65262 0.00239584 -3.14088 -3.79903 0.791018
2 1 6.43751 0.0778286 3.33925 0.930608 2.79054 -2.13956
3 1 0.154068 3.19434 6.65172 -0.941852 -1.27574 -2.84923
4 1 6.46485 3.25007 3.25894 -0.0431999 -2.33733 4.3902
5 1 3.3593 6.67936 0.0255228 0.880894 1.55589 1.79145
6 1 3.23849 6.49477 3.30152 3.76157 0.827358 -0.697645
7 1 3.38073 3.237 6.62721 -2.92983 -2.20448 3.45299
8 1 3.2375 3.38129 3.34262 -1.2867 -2.61645 -1.30637
9 1 1.76208 1.4664 1.68799 2.53791 -1.62464 2.42069
10 1 1.67193 1.62012 5.05597 -1.92433 4.23364 -2.9067
11 1 1.58729 4.87054 1.56231 3.36291 0.467296 -1.84024
12 1 1.69039 4.91795 4.8642 -3.60039 3.47795 -1.2935
13 1 5.04509 1.73558 1.53728 3.01258 -3.41703 0.225735
14 1 4.96787 1.79365 4.92487 -1.56652 0.733596 0.816852
15 1 4.94942 5.02272 1.5793 -0.58142 3.42337 -1.74229
16 1 4.77156 5.00577 5.03888 1.52863 -0.234931 0.886608
ITEM: TIMESTEP
6000
ITEM: NUMBER OF ATOMS
16
ITEM: BOX BOUNDS xy xz yz pp pp pp
0.0000000000000000e+00 6.5999999999999996e+00 0.0000000000000000e+00
0.0000000000000000e+00 6.5999999999999996e+00 0.0000000000000000e+00
0.0000000000000000e+00 6.5999999999999996e+00 0.0000000000000000e+00
ITEM: ATOMS id type x y z fx fy fz
1 1 6.53177 0.107859 0.130736 2.43669 -2.35313 -2.85241
2 1 6.57779 6.50662 3.18259 -1.14349 0.877456 -3.15375
3 1 6.5588 3.24135 0.0345891 1.46343 -2.0982 1.25514
4 1 0.126975 3.42251 3.30858 -2.78807 -4.53342 -1.96644
5 1 3.30112 6.58972 6.53528 0.872814 0.827515 -1.13631
6 1 3.20067 6.55608 3.22629 2.92649 -1.09645 -0.172987
7 1 3.32134 3.19697 6.46387 2.64566 0.125586 4.38551
8 1 3.36033 3.25172 3.36837 -0.403394 4.12006 -1.90962
9 1 1.73249 1.63622 1.65766 1.44985 0.535514 3.94291
10 1 1.5953 1.65609 4.95071 -4.37576 2.32795 2.77178
11 1 1.68703 4.97728 1.75301 -1.235 0.178646 -1.87436
12 1 1.55539 4.9351 5.02554 -0.748748 -1.18085 -2.60219
13 1 4.86246 1.798 1.66838 1.14736 -3.72597 0.759388
14 1 4.98856 1.51646 4.80689 -1.79204 3.71584 -0.152095
15 1 4.94557 5.02867 1.68948 -2.69682 3.10366 1.93772
16 1 5.0544 4.97935 4.99803 2.24102 -0.824207 0.767719
ITEM: TIMESTEP
7000
ITEM: NUMBER OF ATOMS
16
ITEM: BOX BOUNDS xy xz yz pp pp pp
0.0000000000000000e+00 6.5999999999999996e+00 0.0000000000000000e+00
0.0000000000000000e+00 6.5999999999999996e+00 0.0000000000000000e+00
0.0000000000000000e+00 6.5999999999999996e+00 0.0000000000000000e+00
ITEM: ATOMS id type x y z fx fy fz
1 1 0.0162782 -0.0239775 6.60611 0.951364 -2.68084 1.90598
2 1 0.169497 6.64667 3.2446 1.68314 -3.25711 -0.275888
3 1 6.58853 3.33335 6.48032 -1.48768 0.398945 0.175106
4 1 0.0572848 3.17209 3.24654 -0.110811 -0.324696 0.627495
5 1 3.26391 6.47572 6.49793 -1.44591 4.00837 0.477152
6 1 3.37879 0.0645623 3.21846 1.74779 0.105735 0.836133
7 1 3.27967 3.33356 0.0789418 -3.71152 1.32412 -2.17992
8 1 3.24234 3.34033 3.38417 3.12443 3.56198 -4.22342
9 1 1.55365 1.6769 1.76605 1.86288 2.83075 1.95034
10 1 1.75376 1.48609 5.04651 0.967272 3.58108 3.01088
11 1 1.53587 4.92805 1.56643 -0.086929 0.852237 0.838139
12 1 1.60524 4.83226 5.02257 2.95422 -0.805923 -3.40979
13 1 4.92422 1.7334 1.65095 -4.67369 0.348045 -1.09835
14 1 4.99336 1.74039 4.92879 3.07504 -3.21972 2.00759
15 1 4.93289 5.08715 1.68091 -4.83501 -4.72989 -3.72043
16 1 4.90469 4.97345 4.9807 -0.0145815 -1.99309 3.07899
ITEM: TIMESTEP
8000
ITEM: NUMBER OF ATOMS
16
ITEM: BOX BOUNDS xy xz yz pp pp pp
0.0000000000000000e+00 6.5999999999999996e+00 0.0000000000000000e+00
0.0000000000000000e+00 6.5999999999999996e+00 0.0000000000000000e+00
0.0000000000000000e+00 6.5999999999999996e+00 0.0000000000000000e+00
ITEM: ATOMS id type x y z fx fy fz
1 1 6.5769 0.0755457 6.39387 -0.0516817 0.579563 1.86775
2 1 0.0427431 0.0420473 3.21785 1.33865 0.294136 -2.92298
3 1 0.157437 3.30377 0.0599367 0.662743 2.26419 -3.94681
4 1 6.60359 3.22262 3.27686 -0.415617 -2.19086 2.84557
5 1 3.27881 -0.0227492 0.0549169 2.49243 1.94844 1.75375
6 1 3.23269 6.53719 3.40466 -0.486438 -1.5712 -1.18512
7 1 3.35183 3.31555 0.00938878 -2.0137 -2.49524 0.399136
8 1 3.20648 3.36279 3.17858 2.30567 0.0623423 2.35979
9 1 1.74037 1.68035 1.77178 -2.28132 3.73916 -0.582463
10 1 1.77134 1.72081 5.11705 -2.49809 2.26512 -0.68665
11 1 1.45159 5.08428 1.73183 -1.26999 -0.469563 -0.591658
12 1 1.72111 4.98818 4.94744 2.42869 -1.42976 2.44703
13 1 4.89992 1.71963 1.77471 2.74786 -1.96877 -4.67949
14 1 4.95677 1.53622 5.02345 -1.31461 0.256192 3.55514
15 1 4.74244 4.9292 1.46917 -1.78107 -0.622629 2.69299
16 1 5.06598 4.70456 4.76852 0.136468 -0.661122 -3.32597
ITEM: TIMESTEP
9000
ITEM: NUMBER OF ATOMS
16
ITEM: BOX BOUNDS xy xz yz pp pp pp
0.0000000000000000e+00 6.5999999999999996e+00 0.0000000000000000e+00
0.0000000000000000e+00 6.5999999999999996e+00 0.0000000000000000e+00
0.0000000000000000e+00 6.5999999999999996e+00 0.0000000000000000e+00
ITEM: ATOMS id type x y z fx fy fz
1 1 0.0760285 6.44517 6.54176 1.13495 2.83817 -0.940287
2 1 6.38195 6.47135 3.31169 2.9865 -2.32019 1.90671
3 1 6.62185 3.08998 0.100062 0.776526 0.340397 -1.76457
4 1 6.54488 3.21687 3.33471 2.57227 -0.967877 -4.36169
5 1 3.37966 6.58305 0.073004 -3.43483 -2.61225 2.49088
6 1 3.30095 -0.0320055 3.35952 1.7168 -0.603255 0.656724
7 1 3.31545 3.2777 -0.0345529 -0.189969 -0.440513 -0.0132649
8 1 3.27994 3.49426 3.32608 0.129992 2.71646 0.649854
9 1 1.75336 1.68783 1.68884 -1.48137 1.5494 1.90164
10 1 1.70722 1.69818 4.86242 -4.04074 -1.49913 -0.155928
11 1 1.61711 5.19129 1.63288 3.42716 2.10879 0.619696
12 1 1.61856 4.91391 4.91014 -1.05451 -0.85607 0.633749
13 1 5.04179 1.73986 1.56408 -2.39323 -0.79216 1.44607
14 1 4.93229 1.56243 4.93825 0.711633 -1.46734 -3.21428
15 1 4.9671 5.04272 1.5815 -0.211572 2.0475 1.16541
16 1 4.86186 5.0174 5.00962 -0.649602 -0.0419214 -1.02072
ITEM: TIMESTEP
10000
ITEM: NUMBER OF ATOMS
16
ITEM: BOX BOUNDS xy xz yz pp pp pp
0.0000000000000000e+00 6.5999999999999996e+00 0.0000000000000000e+00
0.0000000000000000e+00 6.5999999999999996e+00 0.0000000000000000e+00
0.0000000000000000e+00 6.5999999999999996e+00 0.0000000000000000e+00
ITEM: ATOMS id type x y z fx fy fz
1 1 6.54519 0.0652156 6.51638 1.18915 -0.100819 2.87855
2 1 0.0362255 0.0619041 3.25031 -0.18968 -2.5057 -3.18895
3 1 0.0711646 3.38638 6.61109 -1.43054 1.77403 0.565435
4 1 6.53523 3.35826 3.24193 1.63173 -2.75712 0.688393
5 1 3.3145 6.49645 0.0246119 1.42048 3.58479 -1.52118
6 1 3.25837 6.61782 3.33653 -0.722917 2.78281 0.778853
7 1 3.35741 3.19183 0.0142815 2.87667 2.32501 1.49387
8 1 3.2587 3.34013 3.37072 -0.0398159 1.59877 -3.00013
9 1 1.62045 1.68274 1.74884 -2.58247 1.1795 -2.21826
10 1 1.71645 1.57864 4.97044 1.68778 -1.0939 2.98919
11 1 1.62102 4.83791 1.60902 0.179643 -0.169683 -1.58259
12 1 1.58664 4.92921 4.89087 0.147487 -1.61554 -0.180625
13 1 5.08619 1.6661 1.65809 -2.45853 0.6106 -1.33105
14 1 5.02523 1.65592 4.87533 -1.0119 1.43361 0.651526
15 1 4.82273 4.99576 1.58718 2.63394 -3.85395 3.60042
16 1 4.94451 4.93574 5.09438 -3.33102 -3.19241 -0.623457
ITEM: TIMESTEP
11000
ITEM: NUMBER OF ATOMS
16
ITEM: BOX BOUNDS xy xz yz pp pp pp
0.0000000000000000e+00 6.5999999999999996e+00 0.0000000000000000e+00
0.0000000000000000e+00 6.5999999999999996e+00 0.0000000000000000e+00
0.0000000000000000e+00 6.5999999999999996e+00 0.0000000000000000e+00
ITEM: ATOMS id type x y z fx fy fz
1 1 6.66638 6.61975 6.46601 -3.32904 2.67556 -1.74989
2 1 -0.00421175 -0.000149265 3.20002 3.60283 3.56791 -0.264162
3 1 6.4381 3.29018 5.97979e-05 -1.60795 -2.29916 -1.25816
4 1 6.59091 3.35448 3.25542 -1.11338 -3.06175 3.48439
5 1 3.1608 6.65241 6.68288 0.470919 2.38729 0.0444862
6 1 3.3375 0.0413193 3.32291 -2.59264 0.473599 -3.62448
7 1 3.41828 3.24897 0.075336 -1.4622 -2.93916 -0.28084
8 1 3.29352 3.3277 3.2333 0.212413 3.51561 3.33052
9 1 1.54532 1.56475 1.62669 -0.636201 -2.24307 -3.64777
10 1 1.50736 1.79485 4.95295 4.1609 1.20252 1.75776
11 1 1.69199 4.92542 1.82815 -2.21072 -0.693632 -2.36648
12 1 1.84304 4.95504 5.03682 2.16825 1.99507 -2.38781
13 1 5.03591 1.54908 1.5845 -2.38403 -2.30837 4.10993
14 1 4.86746 1.68784 4.93463 1.81001 -1.20879 1.10823
15 1 4.87684 4.91868 1.66657 1.73551 1.21457 3.22855
16 1 5.1308 4.86967 4.93374 1.17532 -2.27819 -1.48428
ITEM: TIMESTEP
12000
ITEM: NUMBER OF ATOMS
16
ITEM: BOX BOUNDS xy xz yz pp pp pp
0.0000000000000000e+00 6.5999999999999996e+00 0.0000000000000000e+00
0.0000000000000000e+00 6.5999999999999996e+00 0.0000000000000000e+00
0.0000000000000000e+00 6.5999999999999996e+00 0.0000000000000000e+00
ITEM: ATOMS id type x y z fx fy fz
1 1 6.56369 0.134989 -0.0271159 -3.23256 -0.756881 -2.32354
2 1 -0.065978 -0.00241418 3.32367 -3.13059 2.48907 1.20402
3 1 0.00943571 3.37608 6.40584 -0.742553 -3.42879 1.39873
4 1 6.6427 3.2872 3.17596 -0.329535 4.23119 -1.78352
5 1 3.39192 6.48118 6.7106 1.10956 -1.55366 -1.49442
6 1 3.24258 0.05653 3.4076 2.94803 0.180851 0.788711
7 1 3.32608 3.23061 6.63529 -3.27511 2.28707 -0.790833
8 1 3.27395 3.34042 3.31035 1.5467 0.518878 -2.83224
9 1 1.532 1.70171 1.59438 -0.51067 2.49552 3.5338
10 1 1.71787 1.71465 5.06798 1.29612 -2.32856 1.89867
11 1 1.73211 5.06716 1.6529 0.301851 0.973876 2.1968
12 1 1.64411 4.97604 5.03296 -2.14143 -2.71943 -1.54131
13 1 4.81764 1.47293 1.73601 3.08511 -0.718715 1.26366
14 1 4.99664 1.62315 5.0334 -1.90575 -2.21389 -1.51628
15 1 4.94725 4.80148 1.57237 2.16514 -2.47802 2.42719
16 1 5.02802 4.93829 4.76781 2.8157 3.02149 -2.42944
ITEM: TIMESTEP
13000
ITEM: NUMBER OF ATOMS
16
ITEM: BOX BOUNDS xy xz yz pp pp pp
0.0000000000000000e+00 6.5999999999999996e+00 0.0000000000000000e+00
0.0000000000000000e+00 6.5999999999999996e+00 0.0000000000000000e+00
0.0000000000000000e+00 6.5999999999999996e+00 0.0000000000000000e+00
ITEM: ATOMS id type x y z fx fy fz
1 1 0.100769 0.0767559 0.00483291 -0.0757885 -1.06985 3.11701
2 1 0.0553849 6.55013 3.33328 -1.98797 0.80157 1.30038
3 1 6.57042 3.32897 6.56286 0.308353 1.76469 2.08197
4 1 0.109694 3.23522 3.08358 -3.3633 -1.40127 1.45495
5 1 3.27804 6.55302 0.0975814 -2.54012 -0.928745 -0.603643
6 1 3.29951 6.57646 3.37216 -1.34672 0.370561 -1.49163
7 1 3.36795 3.29656 6.53182 -1.17341 -0.409833 2.61933
8 1 3.3038 3.44024 3.17773 -0.619938 0.193549 -2.29569
9 1 1.58593 1.6599 1.76477 4.46625 0.397345 -1.69674
10 1 1.69798 1.799 5.08595 -3.077 -3.0933 -1.68085
11 1 1.5303 4.91179 1.72604 4.00853 3.79256 -2.34656
12 1 1.55139 4.85405 4.94603 -1.03215 3.25887 -0.799599
13 1 4.94952 1.52118 1.69252 -3.27401 1.82429 -1.76955
14 1 4.96422 1.69351 4.84125 2.02405 -1.1975 3.60006
15 1 5.0006 4.96506 1.52414 3.42579 -1.428 0.167222
16 1 4.83449 4.93814 5.05544 4.25745 -2.87494 -1.65668
ITEM: TIMESTEP
14000
ITEM: NUMBER OF ATOMS
16
ITEM: BOX BOUNDS xy xz yz pp pp pp
0.0000000000000000e+00 6.5999999999999996e+00 0.0000000000000000e+00
0.0000000000000000e+00 6.5999999999999996e+00 0.0000000000000000e+00
0.0000000000000000e+00 6.5999999999999996e+00 0.0000000000000000e+00
ITEM: ATOMS id type x y z fx fy fz
1 1 0.015611 0.106219 -0.0448288 3.57348 1.63775 3.80917
2 1 6.48513 0.0828168 3.34692 -1.61739 -1.75206 -1.81011
3 1 0.032408 3.3937 0.0728678 -0.937615 -0.0856699 -2.33375
4 1 0.0671371 3.30592 3.44661 1.16809 -0.42289 0.847238
5 1 3.3642 6.57202 6.47938 3.45906 1.82457 2.62585
6 1 3.23151 0.0451073 3.33654 -0.350622 -1.28783 -3.17058
7 1 3.23965 3.27231 6.47799 0.249642 -2.63866 2.28232
8 1 3.33036 3.26838 3.19157 3.27277 -3.9021 -2.01215
9 1 1.65864 1.51522 1.67686 -1.02393 -0.63613 -1.4093
10 1 1.48559 1.58109 5.05777 -1.91757 -2.7244 0.29247
11 1 1.72089 4.92541 1.55131 0.352964 -0.882374 4.00796
12 1 1.61659 4.81924 4.89381 -1.22909 3.82875 -1.12428
13 1 5.01369 1.69472 1.67012 -3.12953 0.625036 2.96432
14 1 4.93302 1.73481 4.96848 3.14464 1.9676 0.241548
15 1 4.97792 4.85785 1.7758 -2.93334 1.35268 -2.86079
16 1 5.02767 5.02517 4.8988 -2.08154 3.09573 -2.3499
ITEM: TIMESTEP
15000
ITEM: NUMBER OF ATOMS
16
ITEM: BOX BOUNDS xy xz yz pp pp pp
0.0000000000000000e+00 6.5999999999999996e+00 0.0000000000000000e+00
0.0000000000000000e+00 6.5999999999999996e+00 0.0000000000000000e+00
0.0000000000000000e+00 6.5999999999999996e+00 0.0000000000000000e+00
ITEM: ATOMS id type x y z fx fy fz
1 1 0.000781897 -0.00475916 -0.01218 1.15329 -1.78757 2.3592
2 1 -0.0427665 6.63525 3.38873 1.83043 0.453993 -2.39519
3 1 -0.0279452 3.25763 0.0347168 1.48235 -1.92131 3.47672
4 1 6.58562 3.24952 3.34513 -1.52252 -0.515919 1.40615
5 1 3.35711 6.51015 0.0308067 -2.54681 1.53175 1.69551
6 1 3.28628 0.11459 3.22028 -2.52025 -1.89187 3.29715
7 1 3.39389 3.24754 0.0872157 0.160004 2.56793 -2.9885
8 1 3.21987 3.39638 3.22421 -0.385974 1.41998 -2.40078
9 1 1.64426 1.66537 1.73309 0.192983 0.496412 -1.65546
10 1 1.64194 1.74483 4.97763 2.45066 -0.397806 3.26065
11 1 1.71596 4.96523 1.59556 -2.46389 2.75896 3.43643
12 1 1.61919 5.09167 4.99771 1.89948 -0.691949 -1.92725
13 1 4.93802 1.55382 1.63263 0.0566985 -2.95199 -3.34641
14 1 4.76002 1.59659 5.07761 1.84112 -1.69139 2.52651
15 1 5.15226 4.90108 1.50382 -1.67733 2.61457 -3.6526
16 1 4.9555 4.87511 4.76305 0.0497655 0.0062127 -3.09214
ITEM: TIMESTEP
16000
ITEM: NUMBER OF ATOMS
16
ITEM: BOX BOUNDS xy xz yz pp pp pp
0.0000000000000000e+00 6.5999999999999996e+00 0.0000000000000000e+00
0.0000000000000000e+00 6.5999999999999996e+00 0.0000000000000000e+00
0.0000000000000000e+00 6.5999999999999996e+00 0.0000000000000000e+00
ITEM: ATOMS id type x y z fx fy fz
1 1 6.47352 0.0639969 6.59386 -2.10662 1.57418 -2.23898
2 1 6.49288 0.0543751 3.20329 3.70349 -1.20698 1.44571
3 1 0.138471 3.23601 6.54764 -2.6439 1.94054 -2.55603
4 1 0.0128333 3.289 3.24114 4.09225 -0.399829 -0.712912
5 1 3.33477 0.00178743 0.000511794 2.23641 2.41632 0.00439119
6 1 3.21222 0.0881189 3.29497 -3.08119 1.08626 3.55155
7 1 3.36228 3.25067 0.0210659 1.03155 -3.27713 -1.21597
8 1 3.41054 3.27896 3.34557 -1.82641 -3.90582 -2.44622
9 1 1.59203 1.59831 1.4939 -1.53837 -2.88928 3.99809
10 1 1.45462 1.64819 4.96936 -0.53267 -1.95798 0.839443
11 1 1.79686 4.87597 1.69861 0.983676 2.96687 0.385088
12 1 1.66169 4.93332 4.97988 2.64336 1.89797 2.06677
13 1 4.93279 1.6177 1.76572 2.17559 -2.3578 -0.743411
14 1 4.99028 1.68657 5.05868 -1.92758 2.84218 -1.46487
15 1 5.02997 4.99794 1.65335 -2.1237 -1.58432 1.65975
16 1 4.90425 4.97908 4.93245 -1.08589 2.85483 -2.57241
ITEM: TIMESTEP
17000
ITEM: NUMBER OF ATOMS
16
ITEM: BOX BOUNDS xy xz yz pp pp pp
0.0000000000000000e+00 6.5999999999999996e+00 0.0000000000000000e+00
0.0000000000000000e+00 6.5999999999999996e+00 0.0000000000000000e+00
0.0000000000000000e+00 6.5999999999999996e+00 0.0000000000000000e+00
ITEM: ATOMS id type x y z fx fy fz
1 1 0.142732 6.49443 0.0345842 -4.02189 -2.34036 -2.033
2 1 6.59439 6.54697 3.3963 1.42131 -3.10876 -2.63309
3 1 0.107393 3.40646 6.38678 -1.15976 -0.0601691 4.48758
4 1 6.56648 3.27581 3.2114 -0.66507 0.256937 2.19768
5 1 3.1823 0.0672143 6.54465 4.10031 0.0359322 2.96699
6 1 3.34963 6.6877 3.38492 -2.73724 -2.96209 -3.82931
7 1 3.4044 3.33215 6.65835 1.28339 -2.95408 2.44259
8 1 3.26613 3.36371 3.24575 2.0142 4.03979 3.46343
9 1 1.6565 1.41212 1.7165 -3.39822 2.86418 3.94495
10 1 1.48408 1.57344 4.97862 4.5721 4.28076 -3.0703
11 1 1.65561 4.79233 1.63536 -2.80598 -2.16718 -2.80738
12 1 1.59901 5.04357 4.89591 0.111682 1.06065 -3.18084
13 1 4.92321 1.64863 1.61833 1.45725 -0.518964 0.622769
14 1 4.9517 1.72956 4.93577 0.916243 0.515266 -3.51245
15 1 5.01958 5.00529 1.77879 -1.72746 -1.29914 2.2463
16 1 4.89686 5.02064 4.97796 0.639146 2.35722 -1.30591
ITEM: TIMESTEP
18000
ITEM: NUMBER OF ATOMS
16
ITEM: BOX BOUNDS xy xz yz pp pp pp
0.0000000000000000e+00 6.5999999999999996e+00 0.0000000000000000e+00
0.0000000000000000e+00 6.5999999999999996e+00 0.0000000000000000e+00
0.0000000000000000e+00 6.5999999999999996e+00 0.0000000000000000e+00
ITEM: ATOMS id type x y z fx fy fz
1 1 -0.0499657 0.130139 6.52037 4.32647 -4.7273 1.50519
2 1 -0.0524736 0.0803643 3.30396 3.17394 -1.23447 3.32967
3 1 6.5985 3.29968 0.1143 2.89143 -0.794098 -2.15183
4 1 0.0163109 3.36463 3.33254 0.905133 2.23326 3.1555
5 1 3.3912 6.55569 6.59363 -2.26661 -0.368204 -0.61625
6 1 3.03428 6.41493 3.30304 -0.496147 -2.55584 -0.671566
7 1 3.3871 3.24447 6.44813 0.660999 -0.280943 -0.298479
8 1 3.29101 3.15368 3.21539 -0.179777 -1.07677 1.95727
9 1 1.69203 1.63391 1.63147 -1.14753 1.27118 -1.49096
10 1 1.658 1.79007 4.98178 -1.48251 1.39082 0.0732392
11 1 1.62979 4.93605 1.54019 -1.07861 1.02837 -1.55278
12 1 1.74704 4.98463 4.98082 0.140885 0.860019 -0.784319
13 1 5.11523 1.60254 1.76786 -3.47703 2.30239 -2.21681
14 1 4.90366 1.73589 4.93675 -1.5396 2.16092 3.07826
15 1 4.94397 4.89994 1.75836 1.90902 -3.70304 -0.966172
16 1 4.89431 4.97339 4.9714 -2.34007 3.49371 -2.34997
ITEM: TIMESTEP
19000
ITEM: NUMBER OF ATOMS
16
ITEM: BOX BOUNDS xy xz yz pp pp pp
0.0000000000000000e+00 6.5999999999999996e+00 0.0000000000000000e+00
0.0000000000000000e+00 6.5999999999999996e+00 0.0000000000000000e+00
0.0000000000000000e+00 6.5999999999999996e+00 0.0000000000000000e+00
ITEM: ATOMS id type x y z fx fy fz
1 1 6.49334 0.153219 0.0316248 -0.0661595 1.10739 0.606046
2 1 0.06209 -0.006524 3.38336 0.554764 -0.0902623 -3.73526
3 1 0.000571587 3.33763 6.54545 0.431163 -0.698394 -0.174994
4 1 6.55829 3.28028 3.32174 -2.78933 -1.03294 1.0834
5 1 3.21057 6.548 6.56652 -2.76167 -0.254629 2.33264
6 1 3.31516 6.59912 3.21631 1.86975 -2.08517 3.62807
7 1 3.41724 3.27061 0.0235368 1.74588 1.54733 -3.2136
8 1 3.26958 3.19738 3.32496 -0.374063 0.322734 0.421066
9 1 1.73496 1.67886 1.57362 0.24146 1.25498 -0.541383
10 1 1.60694 1.63257 4.83384 0.146981 -1.52203 -0.817889
11 1 1.64739 4.94735 1.75073 1.74762 1.13266 0.188023
12 1 1.63445 4.82554 4.98325 -3.62482 1.23056 1.45014
13 1 5.03093 1.54573 1.67938 2.54451 2.0981 1.40107
14 1 4.87897 1.68891 5.01125 -3.20762 -4.34731 -3.38123
15 1 5.00751 4.93049 1.69077 1.12727 1.38815 0.00274708
16 1 4.93202 5.17083 4.86368 2.41427 -0.0511578 0.751156
ITEM: TIMESTEP
20000
ITEM: NUMBER OF ATOMS
16
ITEM: BOX BOUNDS xy xz yz pp pp pp
0.0000000000000000e+00 6.5999999999999996e+00 0.0000000000000000e+00
0.0000000000000000e+00 6.5999999999999996e+00 0.0000000000000000e+00
0.0000000000000000e+00 6.5999999999999996e+00 0.0000000000000000e+00
ITEM: ATOMS id type x y z fx fy fz
1 1 0.121223 6.56065 0.202035 -1.70512 -0.78548 -2.60595
2 1 6.49714 0.0849501 3.33307 1.82293 -1.41972 0.736976
3 1 0.0992463 3.34255 0.00857792 3.9444 -2.64012 -2.62266
4 1 6.48124 3.27307 3.34568 -1.86432 -3.37877 -3.28361
5 1 3.25115 0.0665403 0.133567 1.69698 1.98167 -0.845773
6 1 3.14276 6.58126 3.4485 1.11606 2.08726 -0.897163
7 1 3.44521 3.19292 6.41296 -2.6596 2.28266 0.184301
8 1 3.30194 3.30346 3.1846 2.4379 2.50769 -1.16949
9 1 1.67189 1.8479 1.66559 -1.3832 2.46324 4.24277
10 1 1.63029 1.59462 5.02292 1.25893 -2.22165 3.02035
11 1 1.66142 5.05472 1.53296 -1.13875 -0.545782 1.22269
12 1 1.65127 4.82182 4.7321 -1.13856 0.462731 2.41723
13 1 4.97231 1.62134 1.64043 -0.974021 -0.561349 0.00855969
14 1 4.94121 1.56372 5.02783 -0.306256 0.363156 -1.08792
15 1 4.8169 4.87637 1.68248 0.350126 0.233712 3.13323
16 1 5.1148 5.01412 4.82671 -1.45751 -0.82924 -2.45354
ITEM: TIMESTEP
21000
ITEM: NUMBER OF ATOMS
16
ITEM: BOX BOUNDS xy xz yz pp pp pp
0.0000000000000000e+00 6.5999999999999996e+00 0.0000000000000000e+00
0.0000000000000000e+00 6.5999999999999996e+00 0.0000000000000000e+00
0.0000000000000000e+00 6.5999999999999996e+00 0.0000000000000000e+00
ITEM: ATOMS id type x y z fx fy fz
1 1 -0.0149831 0.0500143 0.0667021 0.686742 -0.38653 -2.81302
2 1 6.57602 -0.0589298 3.29232 0.934648 1.48236 -2.26305
3 1 -0.0124355 3.21891 -0.0160351 -2.57448 -1.93479 3.08595
4 1 6.57594 3.31989 3.27394 1.37229 0.314155 -2.34915
5 1 3.41417 0.0910325 6.55238 -1.97327 2.45817 -0.595649
6 1 3.16759 -0.0428718 3.24322 -0.797284 4.32066 2.98247
7 1 3.35141 3.40037 6.63669 3.85795 -1.69952 -1.16288
8 1 3.3936 3.29051 3.27779 1.37844 -1.07725 -1.92263
9 1 1.62449 1.63216 1.6444 -2.53439 1.99776 3.00852
10 1 1.63505 1.65577 4.89853 -1.48009 -0.433523 -0.305661
11 1 1.65343 4.80325 1.81577 -0.997652 2.02004 -0.588662
12 1 1.65132 5.00727 4.95137 -2.4713 -1.24375 -0.0677092
13 1 4.8347 1.64922 1.64654 4.23868 -0.410114 -0.965199
14 1 5.05394 1.63296 4.8794 3.09506 -1.70944 -0.203921
15 1 5.02596 4.88829 1.65821 -2.31335 -1.51691 1.0433
16 1 4.8698 5.06217 4.97877 -0.422005 -2.18132 3.11728
ITEM: TIMESTEP
22000
ITEM: NUMBER OF ATOMS
16
ITEM: BOX BOUNDS xy xz yz pp pp pp
0.0000000000000000e+00 6.5999999999999996e+00 0.0000000000000000e+00
0.0000000000000000e+00 6.5999999999999996e+00 0.0000000000000000e+00
0.0000000000000000e+00 6.5999999999999996e+00 0.0000000000000000e+00
ITEM: ATOMS id type x y z fx fy fz
1 1 6.57834 6.39642 6.60641 2.66109 1.53174 -0.66913
2 1 6.54934 0.175999 3.30252 2.2681 -3.21976 0.657719
3 1 6.54122 3.10211 0.0308503 3.39411 -2.80672 1.76082
4 1 0.110297 3.34106 3.34271 -0.314362 0.424532 -1.21583
5 1 3.19235 0.0840396 6.53171 3.5837 -2.86466 0.173134
6 1 3.17233 0.129567 3.26369 0.131146 1.67779 1.58527
7 1 3.36278 3.36946 0.0437823 -3.01647 3.57533 2.26257
8 1 3.4132 3.39182 3.31147 -1.26043 2.62174 0.403369
9 1 1.82443 1.63336 1.58992 -0.422687 -1.11101 1.89146
10 1 1.64996 1.46524 4.87554 -0.0926211 2.7588 -2.15537
11 1 1.67867 4.98437 1.64517 -0.746169 -3.74553 -0.866375
12 1 1.53166 4.73357 4.90434 -3.21528 2.39886 -3.21062
13 1 4.95128 1.69565 1.67643 -1.33253 -0.481053 3.73571
14 1 4.93569 1.73479 5.00905 -1.42376 -2.09562 -3.54346
15 1 5.01144 4.96512 1.68885 0.741947 -0.638398 1.24353
16 1 4.89701 4.99744 4.97756 -0.955784 1.97394 -2.05279
ITEM: TIMESTEP
23000
ITEM: NUMBER OF ATOMS
16
ITEM: BOX BOUNDS xy xz yz pp pp pp
0.0000000000000000e+00 6.5999999999999996e+00 0.0000000000000000e+00
0.0000000000000000e+00 6.5999999999999996e+00 0.0000000000000000e+00
0.0000000000000000e+00 6.5999999999999996e+00 0.0000000000000000e+00
ITEM: ATOMS id type x y z fx fy fz
1 1 0.196254 6.55719 0.0607835 2.85059 1.25781 -2.6856
2 1 6.55379 0.0431362 3.36102 0.368964 -0.705104 -2.24986
3 1 0.0496759 3.34914 6.58037 1.94087 0.363253 3.16367
4 1 6.44267 3.22571 3.35978 0.265596 0.872001 1.44306
5 1 3.44893 0.0350122 6.52772 0.0678712 -0.768442 1.48408
6 1 3.23708 0.0723459 3.22474 1.91871 3.00587 -3.81063
7 1 3.33529 3.27692 6.48663 -0.551297 2.30685 0.810026
8 1 3.26799 3.50467 3.33753 1.90325 -2.63006 0.627226
9 1 1.58259 1.58664 1.60039 -2.19253 1.15867 2.5751
10 1 1.69505 1.68091 4.94973 -2.28823 2.66555 2.14324
11 1 1.56468 4.95357 1.66988 -2.92872 -3.31004 0.824407
12 1 1.68838 4.9884 5.0168 2.61254 -1.5363 -0.789219
13 1 4.82877 1.55413 1.72687 1.34643 -3.68054 0.802776
14 1 5.03431 1.64234 4.95068 -2.40701 3.12193 -3.42552
15 1 4.89245 4.80777 1.60452 -1.84229 0.135417 -0.187811
16 1 4.98211 4.92211 4.94256 -1.06475 -2.25688 -0.72494
ITEM: TIMESTEP
24000
ITEM: NUMBER OF ATOMS
16
ITEM: BOX BOUNDS xy xz yz pp pp pp
0.0000000000000000e+00 6.5999999999999996e+00 0.0000000000000000e+00
0.0000000000000000e+00 6.5999999999999996e+00 0.0000000000000000e+00
0.0000000000000000e+00 6.5999999999999996e+00 0.0000000000000000e+00
ITEM: ATOMS id type x y z fx fy fz
1 1 6.50279 6.59797 6.8274 3.45612 -1.84243 1.4405
2 1 0.024521 6.46684 3.20648 3.51594 2.43109 2.1311
3 1 6.60272 3.3126 0.0359904 -2.43302 -3.0626 -0.447762
4 1 0.15488 3.16645 3.39093 -0.364244 3.06878 0.318435
5 1 3.27154 0.0840111 6.54642 3.26701 1.25264 2.8771
6 1 3.32476 0.0408367 3.17365 2.67521 0.0135295 -1.91188
7 1 3.0633 3.40891 0.00681748 -1.83543 -1.11317 -0.168208
8 1 3.48545 3.2313 3.31095 2.2542 3.17584 -2.99209
9 1 1.74861 1.5474 1.4496 -1.67224 -3.7533 -2.36991
10 1 1.68285 1.64053 4.89803 3.08316 2.89146 -1.92466
11 1 1.78013 4.92806 1.73102 -4.40824 -4.30071 -2.58934
12 1 1.49016 5.0065 5.03258 -0.638601 2.98888 -1.62991
13 1 4.9801 1.77743 1.69073 -1.54658 0.335979 1.914
14 1 5.08561 1.72264 4.92333 -4.18616 -1.47624 3.75937
15 1 4.81147 4.92339 1.61096 -0.730971 -3.3306 -1.31883
16 1 4.7911 4.94513 4.96512 -0.436162 2.72085 2.91208
ITEM: TIMESTEP
25000
ITEM: NUMBER OF ATOMS
16
ITEM: BOX BOUNDS xy xz yz pp pp pp