BEGIN_CFG
 Size
    16
 Supercell
         6.600000      0.000000      0.000000
         0.000000      6.600000      0.000000
         0.000000      0.000000      6.600000
 AtomData:  id type       cartes_x      cartes_y      cartes_z           fx          fy          fz
             1    0       6.598190      6.599890      6.599920     0.007760    0.000197    0.001724
             2    0       6.599210      0.000966      3.300510     0.006272   -0.005003   -0.002128
             3    0       6.598880      3.300050      0.000111     0.006970    0.001335   -0.000603
             4    0       6.599920      3.299560      3.300060    -0.001366    0.005073    0.000522
             5    0       3.298870      6.599930      0.000430     0.000357   -0.004092   -0.004083
             6    0       3.300440      6.598850      3.299330    -0.003958    0.002523    0.004854
             7    0       3.300200      3.298590      6.599890    -0.003378    0.008240   -0.003108
             8    0       3.298990      3.298720      3.298740     0.005751    0.003808    0.006437
             9    0       1.650720      1.650850      1.650300    -0.003025   -0.003259    0.003387
            10    0       1.650330      1.650370      4.951870    -0.001763   -0.005984   -0.008532
            11    0       1.650630      4.950910      1.649350    -0.004447   -0.001830    0.001661
            12    0       1.651050      4.948770      4.949230    -0.000661    0.006706    0.001211
            13    0       4.950870      1.651020      1.649090    -0.002395   -0.005208    0.006954
            14    0       4.949980      1.650230      4.950570    -0.000478    0.001655   -0.006220
            15    0       4.950020      4.950070      1.649760     0.001505    0.001996    0.004542
            16    0       4.951700      4.951220      4.950850    -0.007144   -0.006156   -0.006617
 Energy
       -119.446710000000
 Feature   mindist	2.854553
END_CFG

BEGIN_CFG
 Size
    16
 Supercell
    6.6    0    0
    0    6.6    0
    0    0    6.6
 AtomData:  id type    cartes_x    cartes_y    cartes_z    fx    fy    fz
    1    0    0.0    0.0    0.0    -9.85323e-16    -9.85323e-16    -5.55112e-17
    2    0    0.0    0.0    3.3    -7.49401e-16    -7.49401e-16    -2.77556e-17
    3    0    0.0    3.3    0.0    -8.04912e-16    4.44089e-16    -4.16334e-16
    4    0    0.0    3.3    3.3    -7.35523e-16    -1.66533e-16    5.55112e-17
    5    0    3.3    0.0    0.0    4.44089e-16    -8.04912e-16    -4.16334e-16
    6    0    3.3    0.0    3.3    -1.66533e-16    -7.35523e-16    5.55112e-17
    7    0    3.3    3.3    0.0    1.38778e-16    1.38778e-16    -6.93889e-16
    8    0    3.3    3.3    3.3    1.11022e-16    1.11022e-16    -2.35922e-16
    9    0    1.65    1.65    1.65    -2.47025e-15    -2.47025e-15    -2.52576e-15
    10    0    1.65    1.65    4.95    -2.44249e-15    -2.44249e-15    3.46945e-15
    11    0    1.65    4.95    1.65    -2.55351e-15    3.38618e-15    -2.498e-15
    12    0    1.65    4.95    4.95    -2.52576e-15    2.80331e-15    2.83107e-15
    13    0    4.95    1.65    1.65    3.38618e-15    -2.53964e-15    -2.498e-15
    14    0    4.95    1.65    4.95    2.80331e-15    -2.52576e-15    2.83107e-15
    15    0    4.95    4.95    1.65    3.19189e-15    3.17801e-15    -3.44169e-15
    16    0    4.95    4.95    4.95    3.33067e-15    3.34455e-15    3.38618e-15
 Energy
    -119.44671999999997
END_CFG

BEGIN_CFG
 Size
    16
 Supercell
    6.6    0    0
    0    6.6    0
    0    0    6.6
 AtomData:  id type    cartes_x    cartes_y    cartes_z    fx    fy    fz
    1    0    6.59743    6.59986    6.59998    0.0124987    -0.000948761    0.00251539
    2    0    6.59872    0.001632    3.3009    0.0094047    -0.0079714    -0.00401748
    3    0    6.59885    3.29983    0.000368    0.00868418    0.00369264    -0.00292315
    4    0    6.59943    3.29951    3.29989    0.00049237    0.00719322    0.00238166
    5    0    3.29903    0.000496    0.000851    -0.00226956    -0.00955161    -0.00604355
    6    0    3.30055    6.59803    3.29928    -0.00573378    0.00461808    0.00590351
    7    0    3.30048    3.2978    6.59976    -0.00509411    0.0147158    -0.00382877
    8    0    3.29851    3.2979    3.29846    0.00662688    0.00588994    0.00793168
    9    0    1.6513    1.65122    1.65054    -0.00557693    -0.00492654    0.00477746
    10    0    1.6504    1.65049    4.95268    -0.00350416    -0.00722997    -0.0121459
    11    0    1.65099    4.95129    1.64865    -0.00667462    -0.00240481    0.00393894
    12    0    1.65139    4.94876    4.94876    -0.00202604    0.00727269    0.00166883
    13    0    4.9513    1.65145    1.64841    -0.00273583    -0.00851786    0.01264
    14    0    4.94962    1.65031    4.95117    0.00134231    0.00269929    -0.0113802
    15    0    4.95005    4.94962    1.64973    0.00235176    0.00478375    0.00430348
    16    0    4.95193    4.95179    4.95055    -0.00778588    -0.00931451    -0.00572193
 Energy
    -119.44662
END_CFG

BEGIN_CFG
 Size
    16
 Supercell
    6.6    0    0
    0    6.6    0
    0    0    6.6
 AtomData:  id type    cartes_x    cartes_y    cartes_z    fx    fy    fz
    1    0    6.59895    6.59977    6.59986    0.0042242    0.000973226    0.00154865
    2    0    6.5993    0.000344    3.30022    0.00582585    -0.00143574    -0.00123979
    3    0    6.59896    3.29998    6.59986    0.00602859    0.000337788    0.00117408
    4    0    0.000136    3.29996    3.30019    -0.00194646    0.00144247    -0.000960279
    5    0    3.29905    6.59978    6.5e-05    0.00117834    -0.000419039    -0.00103048
    6    0    3.3006    6.59947    3.29974    -0.00451849    0.00112509    0.001735
    7    0    3.30012    3.29944    2e-05    -0.00304067    0.00257094    -0.00297169
    8    0    3.29936    3.29929    3.29896    0.00435178    0.00217253    0.00553274
    9    0    1.65045    1.65032    1.65032    -0.00199299    -0.00168335    0.00105168
    10    0    1.65029    1.65014    4.95103    -0.000930796    -0.00340032    -0.0043537
    11    0    1.65044    4.95031    1.64983    -0.0034787    -0.000403122    -0.000266002
    12    0    1.65068    4.94912    4.94946    -0.000540794    0.00427205    0.00151704
    13    0    4.95058    1.65079    1.64962    -0.00146997    -0.00319936    0.00276257
    14    0    4.95022    1.64999    4.95022    -0.00120858    0.00244893    -0.0025846
    15    0    4.94985    4.95033    1.64981    0.00180879    0.000350634    0.00345694
    16    0    4.95101    4.95094    4.9508    -0.00429009    -0.00515273    -0.00537218
 Energy
    -119.44676000000003
END_CFG

BEGIN_CFG
 Size
    16
 Supercell
    6.6    0    0
    0    6.6    0
    0    0    6.6
 AtomData:  id type    cartes_x    cartes_y    cartes_z    fx    fy    fz
    1    0    6.59521    6.59993    7.3e-05    0.0231567    -0.00514542    0.00345215
    2    0    6.59816    0.005486    3.30191    0.0181714    -0.0307239    -0.0073139
    3    0    6.59806    3.29921    0.002391    0.0126032    0.00986504    -0.0166759
    4    0    6.59702    3.29796    3.29902    0.0109613    0.0250956    0.013274
    5    0    3.29879    0.001447    0.002281    -0.00419675    -0.0204338    -0.0147459
    6    0    3.30107    6.59712    3.29888    -0.0119681    0.0029394    0.0118379
    7    0    3.30064    3.29667    6.59936    -0.00522002    0.0261618    -0.00824832
    8    0    3.2964    3.29603    3.29654    0.00895416    0.0143054    0.0170053
    9    0    1.65439    1.65205    1.6512    -0.0211    -0.00830556    0.00604852
    10    0    1.65223    1.65003    4.95476    -0.015675    -0.00637693    -0.0191997
    11    0    1.65287    4.95216    1.64494    -0.0192115    -0.0033736    0.0234315
    12    0    1.65265    4.94803    4.949    -0.0142558    0.00880225    -0.00991701
    13    0    4.95204    1.65178    1.64805    0.00170908    -0.0105922    0.0184935
    14    0    4.94898    1.64984    4.95253    0.00812341    0.00843135    -0.0186963
    15    0    4.95044    4.94962    1.65091    0.00732163    0.00583692    -0.00470681
    16    0    4.95104    4.95264    4.94815    0.000626271    -0.0164863    0.00596094
 Energy
    -119.44606
END_CFG

BEGIN_CFG
 Size
    16
 Supercell
    6.6    0    0
    0    6.6    0
    0    0    6.6
 AtomData:  id type    cartes_x    cartes_y    cartes_z    fx    fy    fz
    1    0    6.59345    0.001347    0.000417    0.0323867    -0.012956    0.000266013
    2    0    6.59761    0.007688    3.30174    0.0254639    -0.0481197    -0.00477841
    3    0    6.59719    3.29913    0.004947    0.0150141    0.0145065    -0.0328076
    4    0    6.59461    3.2959    3.29878    0.021385    0.0413575    0.0233669
    5    0    3.29901    0.003373    0.004359    -0.00696856    -0.0326608    -0.0261051
    6    0    3.30082    6.59648    3.29867    -0.0149058    0.000794233    0.0180326
    7    0    3.30043    3.29652    6.59894    -0.00259769    0.0337164    -0.0143358
    8    0    3.29437    3.29535    3.29445    0.0111562    0.0185903    0.028108
    9    0    1.65715    1.65305    1.65222    -0.0314581    -0.013934    0.00636957
    10    0    1.65336    1.64961    4.95692    -0.0211015    -0.00412158    -0.0256726
    11    0    1.65337    4.95188    1.64184    -0.0222897    0.00137129    0.0400636
    12    0    1.6534    4.94793    4.94979    -0.0203326    0.00825681    -0.0207276
    13    0    4.95348    1.65136    1.64859    0.000136134    -0.00989923    0.0163607
    14    0    4.94909    1.64845    4.95207    0.00815038    0.0168277    -0.015966
    15    0    4.95146    4.94894    1.65072    0.00435147    0.00836435    -0.0086875
    16    0    4.95123    4.95299    4.94556    0.00161007    -0.0220938    0.0165134
 Energy
    -119.44524999999999
END_CFG

BEGIN_CFG
 Size
    16
 Supercell
    6.6    0    0
    0    6.6    0
    0    0    6.6
 AtomData:  id type    cartes_x    cartes_y    cartes_z    fx    fy    fz
    1    0    6.5906    0.003759    0.00061    0.0509982    -0.0201232    -0.00560814
    2    0    6.59559    0.009777    3.30058    0.0428533    -0.0711328    0.00240808
    3    0    6.595    3.30091    0.010859    0.0209558    0.0106625    -0.0679779
    4    0    6.59131    3.29169    3.29847    0.0373093    0.0670809    0.0440976
    5    0    3.3006    0.006704    0.008178    -0.0178569    -0.0508498    -0.0475981
    6    0    3.30058    6.5955    3.29836    -0.0225048    0.000969383    0.0296043
    7    0    3.29884    3.29689    6.59847    0.00424503    0.042148    -0.0261044
    8    0    3.29168    3.29578    3.29123    0.0127901    0.0175488    0.0468321
    9    0    1.66129    1.65443    1.65334    -0.0481348    -0.0222065    0.00874778
    10    0    1.65435    1.64994    4.95991    -0.0226808    -0.00553454    -0.035065
    11    0    1.6535    4.95176    1.63701    -0.0190419    0.00888273    0.065345
    12    0    1.65486    4.94796    4.95073    -0.0299341    0.0109745    -0.0362146
    13    0    4.95484    1.65099    1.64993    -3.05235e-05    -0.0139767    0.0104575
    14    0    4.95068    1.64497    4.95118    -0.000537188    0.03541    -0.00901584
    15    0    4.95447    4.94617    1.64943    -0.0103498    0.0209602    -0.00985478
    16    0    4.95183    4.95277    4.94169    0.00191904    -0.0308133    0.0299464
 Energy
    -119.44304000000001
END_CFG

BEGIN_CFG
 Size
    16
 Supercell
    6.6    0    0
    0    6.6    0
    0    0    6.6
 AtomData:  id type    cartes_x    cartes_y    cartes_z    fx    fy    fz
    1    0    6.58566    0.007846    0.001283    0.0797725    -0.0338852    -0.0163533
    2    0    6.59345    0.011228    3.29922    0.0611356    -0.0990111    0.012671
    3    0    6.59342    3.30467    0.017563    0.0269014    0.00563888    -0.113223
    4    0    6.58512    3.28451    3.29674    0.0699419    0.105896    0.0752999
    5    0    3.30199    0.011436    0.011161    -0.0316739    -0.0855852    -0.0601604
    6    0    3.29934    6.59566    3.29972    -0.027306    -0.00525523    0.0294214
    7    0    3.29819    3.29447    0.000168    0.00953327    0.0710323    -0.0472339
    8    0    3.28884    3.29597    3.28846    0.00652819    0.0201372    0.068121
    9    0    1.66685    1.65703    1.65423    -0.0686583    -0.0389917    0.0233893
    10    0    1.65458    1.65058    4.96701    -0.0220875    -0.00439599    -0.064301
    11    0    1.65242    4.95119    1.63084    -0.00299062    0.0230604    0.0917603
    12    0    1.65834    4.94885    4.94921    -0.0505127    0.00870205    -0.0429959
    13    0    4.9576    1.64978    1.65078    -0.00466005    -0.0207305    0.00549936
    14    0    4.95256    1.64231    4.94927    -0.0121604    0.0500217    0.00176384
    15    0    4.95963    4.94207    1.64763    -0.0414265    0.0407763    -0.0101747
    16    0    4.952    4.95239    4.93671    0.00766306    -0.0374103    0.0465163
 Energy
    -119.43802000000001
END_CFG

BEGIN_CFG
 Size
    16
 Supercell
    6.6    0    0
    0    6.6    0
    0    0    6.6
 AtomData:  id type    cartes_x    cartes_y    cartes_z    fx    fy    fz
    1    0    6.58684    0.006545    0.000865    0.0735191    -0.029126    -0.0120642
    2    0    6.59422    0.010559    3.29952    0.0562116    -0.0903631    0.00937164
    3    0    6.59332    3.30371    0.015964    0.0267594    0.00629567    -0.101853
    4    0    6.58688    3.28636    3.29727    0.0602568    0.0951392    0.0672256
    5    0    3.30194    0.010277    0.010611    -0.029418    -0.0767357    -0.0582956
    6    0    3.29987    6.59594    3.29923    -0.0265584    -0.0059335    0.030803
    7    0    3.29802    3.29521    6.59945    0.00876821    0.0634131    -0.0417852
    8    0    3.28926    3.29565    3.28882    0.00976058    0.0217789    0.0642646
    9    0    1.66547    1.65653    1.65406    -0.0654558    -0.0358381    0.0187802
    10    0    1.65474    1.65054    4.96517    -0.0238172    -0.00548008    -0.0562004
    11    0    1.65313    4.95133    1.63237    -0.00960335    0.0200827    0.086451
    12    0    1.65744    4.94872    4.95015    -0.0447281    0.00944984    -0.0439845
    13    0    4.95649    1.65027    1.65044    -0.000725332    -0.0203627    0.00763215
    14    0    4.9521    1.6429    4.94979    -0.00839551    0.0469696    -0.00190418
    15    0    4.95817    4.94286    1.64835    -0.0317347    0.0372672    -0.0109252
    16    0    4.95211    4.9526    4.93794    0.00516094    -0.036557    0.0424838
 Energy
    -119.43946999999997
END_CFG

BEGIN_CFG
 Size
    16
 Supercell
    6.6    0    0
    0    6.6    0
    0    0    6.6
 AtomData:  id type    cartes_x    cartes_y    cartes_z    fx    fy    fz
    1    0    6.58156    0.012471    0.001885    0.101788    -0.0474445    -0.0260348
    2    0    6.59164    0.012692    3.29836    0.0698477    -0.122825    0.020486
    3    0    6.59389    3.30831    0.023363    0.0278637    6.02041e-05    -0.151493
    4    0    6.57962    3.27876    3.29474    0.10172    0.138706    0.102678
    5    0    3.30292    0.015238    0.011522    -0.0414183    -0.116772    -0.0578771
    6    0    3.29621    6.59314    3.30183    -0.0212897    0.00406012    0.0188679
    7    0    3.29937    3.29064    0.001668    0.00952662    0.101823    -0.0567287
    8    0    3.2876    3.29739    3.28832    -0.00550396    0.0110843    0.0725025
    9    0    1.67167    1.65847    1.65456    -0.0821172    -0.0472292    0.0336402
    10    0    1.65365    1.64996    4.97102    -0.018553    0.00407317    -0.0814217
    11    0    1.65034    4.95147    1.62601    0.0198598    0.0284475    0.107521
    12    0    1.66162    4.94964    4.94739    -0.0724531    0.00109158    -0.0421772
    13    0    4.96034    1.64886    1.65351    -0.0128771    -0.0228566    -0.00885743
    14    0    4.95318    1.64111    4.94689    -0.01947    0.0551869    0.0188354
    15    0    4.96479    4.94068    1.64603    -0.0751886    0.0489482    -0.0119876
    16    0    4.95161    4.95116    4.9329    0.0182651    -0.0363537    0.062046
 Energy
    -119.43243000000002
END_CFG

BEGIN_CFG
 Size
    16
 Supercell
    6.6    0    0
    0    6.6    0
    0    0    6.6
 AtomData:  id type    cartes_x    cartes_y    cartes_z    fx    fy    fz
    1    0    6.58005    0.013673    0.001516    0.109447    -0.0482735    -0.0258597
    2    0    6.59152    0.013208    3.29818    0.0710612    -0.130303    0.0206188
    3    0    6.5942    3.30995    0.025494    0.0265058    -0.00578256    -0.165036
    4    0    6.57781    3.27692    3.29411    0.110753    0.149008    0.111738
    5    0    3.30316    0.016205    0.011154    -0.0444331    -0.125326    -0.0544129
    6    0    3.2953    6.59182    3.30256    -0.0188629    0.0104528    0.0136655
    7    0    3.29959    3.28924    0.002385    0.0113934    0.111348    -0.0601356
    8    0    3.28674    3.29834    3.28859    -0.00704988    0.00484064    0.072992
    9    0    1.67336    1.65905    1.65494    -0.0870504    -0.051773    0.0356249
    10    0    1.65337    1.64951    4.97235    -0.018456    0.00869623    -0.0860112
    11    0    1.64946    4.9512    1.62383    0.0270253    0.0324344    0.114915
    12    0    1.66297    4.95007    4.94666    -0.0796258    -0.00314427    -0.0424058
    13    0    4.96124    1.64843    1.655    -0.0155664    -0.0223169    -0.0160216
    14    0    4.95299    1.64077    4.94618    -0.0198638    0.0581834    0.0255304
    15    0    4.96612    4.9405    1.64538    -0.0849209    0.0501819    -0.0118116
    16    0    4.95211    4.95111    4.93168    0.0196429    -0.0382251    0.0666102
 Energy
    -119.43021999999998
END_CFG

BEGIN_CFG
 Size
    16
 Supercell
    6.6    0    0
    0    6.6    0
    0    0    6.6
 AtomData:  id type    cartes_x    cartes_y    cartes_z    fx    fy    fz
    1    0    6.57465    0.019182    0.000921    0.136247    -0.0536188    -0.0258603
    2    0    6.59081    0.013383    3.29818    0.0734677    -0.150365    0.0199678
    3    0    6.59529    3.31539    0.032635    0.0210577    -0.0258254    -0.211934
    4    0    6.56953    3.27043    3.29179    0.1543    0.182671    0.146579
    5    0    3.30359    0.019068    0.007409    -0.0519714    -0.149102    -0.0291366
    6    0    3.29071    6.58674    3.30482    -0.00339111    0.0382603    -0.0106961
    7    0    3.29985    3.28497    0.00572    0.0204299    0.138027    -0.0799559
    8    0    3.28396    3.30391    3.28793    -0.0184982    -0.027018    0.0853747
    9    0    1.6794    1.66281    1.65652    -0.10413    -0.0748563    0.0405095
    10    0    1.65433    1.64813    4.97614    -0.0291159    0.0268476    -0.100597
    11    0    1.64747    4.951    1.61682    0.0468062    0.0488229    0.139729
    12    0    1.66787    4.95216    4.94565    -0.106099    -0.0212507    -0.0486434
    13    0    4.96483    1.64724    1.66132    -0.0279935    -0.0310399    -0.0504212
    14    0    4.9515    1.63839    4.94193    -0.0146695    0.0706511    0.0586043
    15    0    4.97156    4.93752    1.6429    -0.118511    0.0689497    -0.00849622
    16    0    4.95465    4.94969    4.92931    0.0220724    -0.0411537    0.0749766
 Energy
    -119.42027
END_CFG

BEGIN_CFG
 Size
    16
 Supercell
    6.6    0    0
    0    6.6    0
    0    0    6.6
 AtomData:  id type    cartes_x    cartes_y    cartes_z    fx    fy    fz
    1    0    6.57346    0.02138    0.000161    0.143649    -0.0547891    -0.0225217
    2    0    6.589    0.013065    3.29837    0.0777849    -0.158257    0.0177585
    3    0    6.5967    3.31793    0.036209    0.01373    -0.0364727    -0.237773
    4    0    6.56501    3.26749    3.29016    0.178296    0.19725    0.16817
    5    0    3.30471    0.020288    0.005951    -0.0552079    -0.159502    -0.0196377
    6    0    3.28736    6.58544    3.30484    0.00690912    0.0477879    -0.0173866
    7    0    3.29948    3.28269    0.006303    0.0292672    0.150537    -0.0850684
    8    0    3.28262    3.30718    3.28748    -0.026128    -0.0426374    0.0902564
    9    0    1.68252    1.66518    1.65717    -0.113952    -0.0890736    0.0452682
    10    0    1.65567    1.64691    4.97852    -0.0391215    0.0366766    -0.111587
    11    0    1.6469    4.95087    1.614    0.0532678    0.0591398    0.148791
    12    0    1.67044    4.95303    4.94497    -0.123236    -0.0292648    -0.0504852
    13    0    4.9668    1.64751    1.66568    -0.0331992    -0.0421571    -0.0748437
    14    0    4.95097    1.63736    4.9399    -0.0098035    0.0747971    0.0787405
    15    0    4.97387    4.93487    1.64148    -0.132373    0.0863495    -0.00546641
    16    0    4.95448    4.94879    4.9288    0.0301172    -0.0403838    0.0757853
 Energy
    -119.41409
END_CFG

BEGIN_CFG
 Size
    16
 Supercell
    6.6    0    0
    0    6.6    0
    0    0    6.6
 AtomData:  id type    cartes_x    cartes_y    cartes_z    fx    fy    fz
    1    0    6.5717    0.025549    6.59823    0.154955    -0.0606171    -0.0170352
    2    0    6.5861    0.012494    3.29785    0.0846944    -0.172668    0.0175657
    3    0    6.59863    3.32163    0.041773    -0.000785637    -0.0498429    -0.280246
    4    0    6.55824    3.26262    3.28692    0.215797    0.222717    0.20538
    5    0    3.30644    0.023492    0.004283    -0.059676    -0.178501    -0.00782223
    6    0    3.28198    6.58232    3.30513    0.0234358    0.0676547    -0.0266059
    7    0    3.29734    3.28015    0.009141    0.0506492    0.167055    -0.102886
    8    0    3.281    3.31237    3.28666    -0.0387333    -0.0699947    0.103675
    9    0    1.68754    1.66859    1.65771    -0.13216    -0.109629    0.0528845
    10    0    1.65885    1.6451    4.98115    -0.0570958    0.0508365    -0.12568
    11    0    1.64664    4.95114    1.60949    0.0569744    0.0731324    0.163332
    12    0    1.67515    4.95385    4.9441    -0.157482    -0.0393815    -0.0539526
    13    0    4.96941    1.64783    1.67345    -0.0383771    -0.05936    -0.117827
    14    0    4.95117    1.63503    4.93648    -0.00494735    0.0852718    0.113397
    15    0    4.97701    4.93076    1.63925    -0.14858    0.113792    -0.00120609
    16    0    4.95281    4.94707    4.9284    0.0513315    -0.0404651    0.0770274
 Energy
    -119.40191999999999
END_CFG

BEGIN_CFG
 Size
    16
 Supercell
    6.6    0    0
    0    6.6    0
    0    0    6.6
 AtomData:  id type    cartes_x    cartes_y    cartes_z    fx    fy    fz
    1    0    6.56983    0.028396    6.59708    0.170335    -0.0636108    -0.0120047
    2    0    6.58442    0.01268    3.2981    0.0907286    -0.188677    0.0138817
    3    0    6.59972    3.32462    0.044947    -0.00949794    -0.0607295    -0.303097
    4    0    6.55244    3.25841    3.28531    0.247834    0.247138    0.224772
    5    0    3.30901    0.026089    0.001892    -0.0717184    -0.195375    0.0100051
    6    0    3.27921    6.57993    3.30652    0.0312856    0.0808219    -0.0428666
    7    0    3.2953    3.27761    0.01076    0.0658075    0.183508    -0.111951
    8    0    3.27981    3.31556    3.28607    -0.0508511    -0.086707    0.110612
    9    0    1.69126    1.67054    1.65851    -0.148236    -0.122859    0.0526795
    10    0    1.66207    1.64355    4.9819    -0.0762326    0.0612968    -0.128383
    11    0    1.646    4.95134    1.60601    0.0573217    0.0824183    0.172657
    12    0    1.67948    4.95424    4.9427    -0.186804    -0.046376    -0.0530171
    13    0    4.97075    1.64874    1.67901    -0.0384893    -0.0719048    -0.149514
    14    0    4.95101    1.63364    4.93407    0.00363535    0.0917501    0.139385
    15    0    4.97772    4.92898    1.6385    -0.15363    0.12917    -0.00127445
    16    0    4.95197    4.94566    4.92862    0.0685116    -0.0398635    0.0781161
 Energy
    -119.39156000000001
END_CFG

BEGIN_CFG
 Size
    16
 Supercell
    6.6    0    0
    0    6.6    0
    0    0    6.6
 AtomData:  id type    cartes_x    cartes_y    cartes_z    fx    fy    fz
    1    0    6.56835    0.032877    6.59428    0.189028    -0.0719984    0.000816336
    2    0    6.58205    0.013312    3.29879    0.0976922    -0.217169    0.00568509
    3    0    0.002324    3.32864    0.049453    -0.0313134    -0.072552    -0.334495
    4    0    6.54331    3.25087    3.28308    0.294155    0.290963    0.251728
    5    0    3.31352    0.029381    6.59778    -0.0896077    -0.218935    0.0353477
    6    0    3.27495    6.57798    3.30698    0.0446242    0.091715    -0.0598613
    7    0    3.29084    3.27395    0.013624    0.0981245    0.207775    -0.124126
    8    0    3.27711    3.31986    3.28592    -0.064215    -0.105453    0.11746
    9    0    1.69691    1.67315    1.65988    -0.172796    -0.140036    0.0517466
    10    0    1.66737    1.64276    4.98349    -0.109505    0.0661885    -0.134392
    11    0    1.64553    4.95254    1.6008    0.0513717    0.0920664    0.184469
    12    0    1.68629    4.95385    4.93908    -0.232561    -0.0475893    -0.0465734
    13    0    4.97316    1.64966    1.68749    -0.0390811    -0.0901534    -0.199218
    14    0    4.94989    1.63157    4.93087    0.0218103    0.10271    0.178593
    15    0    4.97776    4.9256    1.63815    -0.152894    0.154075    -0.00157476
    16    0    4.95063    4.94402    4.93035    0.0951676    -0.0416069    0.0743949
 Energy
    -119.37389
END_CFG

BEGIN_CFG
 Size
    16
 Supercell
    6.6    0    0
    0    6.6    0
    0    0    6.6
 AtomData:  id type    cartes_x    cartes_y    cartes_z    fx    fy    fz
    1    0    6.56738    0.035773    6.59227    0.203257    -0.0758219    0.0070502
    2    0    6.58023    0.014354    3.29935    0.104853    -0.24768    0.00288731
    3    0    0.004866    3.33251    0.052314    -0.0522944    -0.0853509    -0.36322
    4    0    6.53573    3.24336    3.27934    0.33302    0.335938    0.284037
    5    0    3.31825    0.033497    6.594    -0.105724    -0.253465    0.0603342
    6    0    3.27218    6.57861    3.3071    0.0515567    0.0892951    -0.0755272
    7    0    3.28724    3.26856    0.01663    0.126361    0.244692    -0.132544
    8    0    3.27399    3.32363    3.28648    -0.0736367    -0.114771    0.118963
    9    0    1.70167    1.67423    1.66109    -0.194327    -0.152558    0.0545255
    10    0    1.67324    1.64362    4.98683    -0.152947    0.0661578    -0.148621
    11    0    1.64363    4.95282    1.59535    0.0537151    0.102199    0.197265
    12    0    1.69387    4.95506    4.93541    -0.283382    -0.051399    -0.0410799
    13    0    4.97581    1.65043    1.69522    -0.0399607    -0.107273    -0.246222
    14    0    4.9465    1.62999    4.92753    0.0553227    0.109038    0.216809
    15    0    4.97757    4.92217    1.6392    -0.155631    0.177915    -0.0075508
    16    0    4.94784    4.94137    4.93188    0.129818    -0.0369153    0.0728931
 Energy
    -119.35346
END_CFG

BEGIN_CFG
 Size
    16
 Supercell
    6.6    0    0
    0    6.6    0
    0    0    6.6
 AtomData:  id type    cartes_x    cartes_y    cartes_z    fx    fy    fz
    1    0    6.56748    0.037818    6.5917    0.206531    -0.0776005    0.00780976
    2    0    6.57891    0.015244    3.29957    0.111398    -0.268454    0.00323388
    3    0    0.006769    3.33524    0.053657    -0.0702537    -0.0956555    -0.381207
    4    0    6.53186    3.23806    3.27648    0.350228    0.366974    0.306553
    5    0    3.32053    0.035284    6.59166    -0.110182    -0.271571    0.0759402
    6    0    3.2712    6.57937    3.30704    0.0528536    0.0850486    -0.0850487
    7    0    3.28396    3.26544    0.018888    0.150263    0.265734    -0.139883
    8    0    3.27103    3.3262    3.28708    -0.0720428    -0.119675    0.120544
    9    0    1.7049    1.67437    1.6619    -0.21099    -0.157433    0.0560381
    10    0    1.67699    1.64472    4.98888    -0.179775    0.063111    -0.157855
    11    0    1.6414    4.9532    1.59135    0.0607352    0.106801    0.209355
    12    0    1.69931    4.95603    4.93303    -0.316916    -0.0525734    -0.0400879
    13    0    4.97635    1.65164    1.69976    -0.0356099    -0.121511    -0.275669
    14    0    4.94444    1.62786    4.92529    0.0757966    0.120147    0.241697
    15    0    4.97784    4.91934    1.64021    -0.161293    0.196428    -0.0109138
    16    0    4.94701    4.94018    4.9335    0.149258    -0.039771    0.0694922
 Energy
    -119.33886
END_CFG

BEGIN_CFG
 Size
    16
 Supercell
    6.6    0    0
    0    6.6    0
    0    0    6.6
 AtomData:  id type    cartes_x    cartes_y    cartes_z    fx    fy    fz
    1    0    6.56851    0.040478    6.59025    0.205826    -0.0800728    0.0117397
    2    0    6.57694    0.016266    3.29915    0.118049    -0.290215    0.00414753
    3    0    0.009488    3.33885    0.054844    -0.091737    -0.108425    -0.395776
    4    0    6.52809    3.23277    3.27445    0.366293    0.398728    0.324912
    5    0    3.32298    0.036939    6.58919    -0.113538    -0.287517    0.0916771
    6    0    3.26968    6.5798    3.30669    0.0562264    0.0795245    -0.0930508
    7    0    3.28052    3.26264    0.020928    0.176249    0.284076    -0.146863
    8    0    3.26824    3.32758    3.28746    -0.0699783    -0.120042    0.123337
    9    0    1.70752    1.6751    1.66337    -0.223198    -0.161847    0.0536944
    10    0    1.68001    1.64591    4.99066    -0.200175    0.0594413    -0.164569
    11    0    1.63874    4.9547    1.58749    0.0711206    0.106982    0.223216
    12    0    1.70423    4.95697    4.93112    -0.345366    -0.0533682    -0.0427233
    13    0    4.97722    1.65296    1.70318    -0.0347721    -0.136773    -0.30035
    14    0    4.94309    1.62451    4.92331    0.0899765    0.135816    0.263292
    15    0    4.97819    4.91619    1.64161    -0.169347    0.216178    -0.0134923
    16    0    4.94654    4.93834    4.9363    0.164371    -0.0424856    0.0608091
 Energy
    -119.32415999999998
END_CFG

BEGIN_CFG
 Size
    16
 Supercell
    6.6    0    0
    0    6.6    0
    0    0    6.6