ITEM: TIMESTEP
0
ITEM: NUMBER OF ATOMS
16
ITEM: BOX BOUNDS xy xz yz pp pp pp
0.0000000000000000e+00 6.5999999999999996e+00 0.0000000000000000e+00
0.0000000000000000e+00 6.5999999999999996e+00 0.0000000000000000e+00
0.0000000000000000e+00 6.5999999999999996e+00 0.0000000000000000e+00
ITEM: ATOMS id type x y z fx fy fz
1 1 0 0 0 -3.85219 -0.414267 0.0851307
2 1 0 0 3.3 -2.4812 0.656589 -3.24796
3 1 0 3.3 0 -3.8991 -5.06569 4.25659
4 1 0 3.3 3.3 -1.7893 -0.557573 -0.717179
5 1 3.3 0 0 -5.75887 -4.27841 3.57875
6 1 3.3 0 3.3 2.88931 -1.18307 5.88207
7 1 3.3 3.3 0 -5.88586 3.95807 -0.153946
8 1 3.3 3.3 3.3 -5.33633 -0.474609 -2.23909
9 1 1.65 1.65 1.65 1.53916 -1.91443 3.16754
10 1 1.65 1.65 4.95 -2.668 2.98996 1.99938
11 1 1.65 4.95 1.65 1.98788 1.84341 -5.4521
12 1 1.65 4.95 4.95 6.42133 -6.23268 -2.19798
13 1 4.95 1.65 1.65 5.35674 1.25466 -3.3721
14 1 4.95 1.65 4.95 4.48021 3.52191 -5.85448
15 1 4.95 4.95 1.65 3.86597 0.942459 3.90746
16 1 4.95 4.95 4.95 5.13024 4.95367 0.357922
ITEM: TIMESTEP
1000
ITEM: NUMBER OF ATOMS
16
ITEM: BOX BOUNDS xy xz yz pp pp pp
0.0000000000000000e+00 6.5999999999999996e+00 0.0000000000000000e+00
0.0000000000000000e+00 6.5999999999999996e+00 0.0000000000000000e+00
0.0000000000000000e+00 6.5999999999999996e+00 0.0000000000000000e+00
ITEM: ATOMS id type x y z fx fy fz
1 1 0.135011 6.40763 0.0990323 -0.0290009 3.57533 0.850862
2 1 -0.00616731 6.53984 3.24774 -5.08333 -2.58774 -1.63708
3 1 6.47525 3.28033 0.0291959 5.8473 -4.96838 -1.7577
4 1 6.42336 3.29126 3.35037 2.79577 6.8571 -3.34246
5 1 3.5079 0.0531396 0.0253687 -6.16898 4.03696 -3.54923
6 1 3.28101 0.0318398 3.46913 5.93251 -4.39258 -0.411181
7 1 3.29504 3.41844 0.0577989 -5.8556 -4.31647 -2.49454
8 1 3.21015 3.42064 3.34277 -5.07312 -2.57296 5.39005
9 1 1.78215 1.66388 1.48669 3.41977 -5.12222 0.710244
10 1 1.8141 1.71396 4.87809 1.52413 6.275 0.606007
11 1 1.4454 4.87333 1.73366 1.7624 2.73903 3.59939
12 1 1.59125 4.86355 5.1459 -5.96668 -5.02836 1.58581
13 1 4.99149 1.90014 1.65841 1.02303 2.44661 -0.298132
14 1 5.21445 1.47022 4.81276 -3.57509 4.27933 -4.89615
15 1 4.70038 4.97422 1.52824 5.90339 2.56486 6.76774
16 1 4.93923 4.89758 4.73483 3.5435 -3.78552 -1.12363
ITEM: TIMESTEP
2000
ITEM: NUMBER OF ATOMS
16
ITEM: BOX BOUNDS xy xz yz pp pp pp
0.0000000000000000e+00 6.5999999999999996e+00 0.0000000000000000e+00
0.0000000000000000e+00 6.5999999999999996e+00 0.0000000000000000e+00
0.0000000000000000e+00 6.5999999999999996e+00 0.0000000000000000e+00
ITEM: ATOMS id type x y z fx fy fz
1 1 0.0533934 6.62789 0.0573923 -1.82194 -1.89044 -1.374
2 1 0.10238 0.0790878 3.2523 -0.233306 2.43923 -0.366945
3 1 0.146691 3.36789 0.206045 0.859585 -3.95833 -6.5136
4 1 0.175142 3.15425 3.49702 0.316486 -1.49202 0.746885
5 1 3.23443 0.0488321 6.32226 0.546337 1.37213 -5.15544
6 1 3.3344 0.0205021 3.22139 0.225897 0.203898 2.58719
7 1 3.10977 3.33466 0.0315143 -4.80294 -4.82471 -5.72662
8 1 3.31303 3.28362 3.13326 -0.280927 -0.696454 5.11214
9 1 1.61269 1.55458 1.72689 3.247 0.282248 0.860027
10 1 1.78361 1.68692 5.13405 -5.10503 -3.21393 -4.98654
11 1 1.67856 4.94795 1.66716 3.83009 5.74117 5.05917
12 1 1.64347 5.03911 4.98826 0.0783819 -6.25324 3.52134
13 1 4.67369 1.68822 1.76641 2.12524 1.84487 -4.69825
14 1 4.92135 1.65597 5.03129 -0.482153 6.48892 2.67192
15 1 4.86233 4.87513 1.46969 -3.88071 4.95269 1.45195
16 1 4.95506 4.8354 4.69508 5.37798 -0.996039 6.81077
ITEM: TIMESTEP
3000
ITEM: NUMBER OF ATOMS
16
ITEM: BOX BOUNDS xy xz yz pp pp pp
0.0000000000000000e+00 6.5999999999999996e+00 0.0000000000000000e+00
0.0000000000000000e+00 6.5999999999999996e+00 0.0000000000000000e+00
0.0000000000000000e+00 6.5999999999999996e+00 0.0000000000000000e+00
ITEM: ATOMS id type x y z fx fy fz
1 1 6.56516 -0.0219239 6.73436 -3.41731 -1.13783 5.05086
2 1 6.62648 0.199225 3.48887 -6.09068 -1.7659 -4.15276
3 1 6.4571 3.35215 6.55769 4.66191 -1.87007 -1.1986
4 1 0.0695314 3.3761 3.17704 -1.91803 -1.26683 5.43126
5 1 3.3731 6.66358 6.47272 -1.50103 -1.72447 -2.76396
6 1 3.17265 6.55182 3.30182 5.33737 -1.03714 1.46951
7 1 3.22113 3.2805 0.120378 2.22098 -1.59238 -1.74625
8 1 3.36665 3.21731 3.25236 0.391126 3.64612 -1.02845
9 1 1.71329 1.46935 1.54584 -0.710513 2.00522 -0.292114
10 1 1.78176 1.67773 4.84175 5.63018 5.36376 -1.14487
11 1 1.60363 5.08381 1.59037 -1.60517 -4.07584 -2.06472
12 1 1.51272 4.89538 5.12333 -3.05385 -1.32616 1.45573
13 1 5.25568 1.45375 1.6596 -3.63292 3.51117 0.323647
14 1 4.9956 1.81345 4.92985 1.08054 -3.96714 2.01525
15 1 4.94201 4.7751 1.65836 -3.97007 7.90857 -5.1069
16 1 4.74351 5.01266 4.94566 6.57747 -2.67106 3.75238
ITEM: TIMESTEP
4000
ITEM: NUMBER OF ATOMS
16
ITEM: BOX BOUNDS xy xz yz pp pp pp
0.0000000000000000e+00 6.5999999999999996e+00 0.0000000000000000e+00
0.0000000000000000e+00 6.5999999999999996e+00 0.0000000000000000e+00
0.0000000000000000e+00 6.5999999999999996e+00 0.0000000000000000e+00
ITEM: ATOMS id type x y z fx fy fz
1 1 0.0165245 6.38989 0.0481751 0.359586 0.605276 -6.83622
2 1 6.58667 0.0474599 3.20209 0.485363 -2.2556 0.636642
3 1 0.100973 3.07321 0.128284 -1.36376 1.75811 4.40645
4 1 0.0778591 3.39752 3.39099 2.07042 -1.34743 1.68047
5 1 3.27606 0.0371206 0.122212 -0.0436076 1.24693 4.68704
6 1 3.23687 0.0978918 3.30698 2.21264 -0.974417 5.28968
7 1 3.31338 3.14078 0.109061 -0.107595 -2.56009 -5.1375
8 1 3.33814 3.358 3.36132 5.0364 0.593741 1.25836
9 1 1.49913 1.61574 1.48158 4.5018 4.90175 -3.01626
10 1 1.76727 1.55851 4.71645 -1.02471 3.01339 0.476432
11 1 1.45452 4.94925 1.90552 1.52963 1.04039 0.393583
12 1 1.70925 4.89409 5.03402 -1.51588 3.5135 -2.32985
13 1 4.87718 1.6256 1.35263 -4.77035 -6.01587 -3.0396
14 1 5.25688 1.91827 4.76704 0.223217 -0.794945 -5.1762
15 1 4.7192 4.80118 1.78325 -4.72952 1.89002 0.56442
16 1 4.9701 5.29548 4.89039 -2.86364 -4.61476 6.14257
ITEM: TIMESTEP
5000
ITEM: NUMBER OF ATOMS
16
ITEM: BOX BOUNDS xy xz yz pp pp pp
0.0000000000000000e+00 6.5999999999999996e+00 0.0000000000000000e+00
0.0000000000000000e+00 6.5999999999999996e+00 0.0000000000000000e+00
0.0000000000000000e+00 6.5999999999999996e+00 0.0000000000000000e+00
ITEM: ATOMS id type x y z fx fy fz
1 1 0.106714 0.0896798 -0.00692694 -5.02793 -6.22067 1.38082
2 1 6.32828 0.10756 3.35705 1.61769 4.6253 -3.50346
3 1 0.250064 3.14675 0.0478225 -1.46858 -2.14576 -4.55432
4 1 6.39081 3.21702 3.2115 -0.204055 -3.91107 7.23028
5 1 3.41769 0.134497 0.0382257 1.25485 2.59382 2.89323
6 1 3.22767 6.44121 3.2834 6.02315 1.27142 -1.02227
7 1 3.43651 3.19866 0.0378493 -4.77887 -3.57181 5.62269
8 1 3.15484 3.41935 3.34492 -1.90846 -4.19505 -1.95066
9 1 1.8291 1.35032 1.73755 4.07057 -2.68938 3.84532
10 1 1.67921 1.59262 5.13831 -3.04867 7.03278 -4.76909
11 1 1.54246 4.82262 1.50411 5.60257 0.783546 -3.0174
12 1 1.71149 4.94394 4.81771 -5.70279 5.4263 -2.19586
13 1 5.0982 1.78695 1.4694 5.03318 -5.53235 0.386565
14 1 5.0076 1.85711 4.93083 -2.7867 1.38739 1.1806
15 1 4.95905 5.05194 1.57868 -1.05574 5.62488 -3.04877
16 1 4.66031 5.03976 5.10956 2.37979 -0.479345 1.52231
ITEM: TIMESTEP
6000
ITEM: NUMBER OF ATOMS
16
ITEM: BOX BOUNDS xy xz yz pp pp pp
0.0000000000000000e+00 6.5999999999999996e+00 0.0000000000000000e+00
0.0000000000000000e+00 6.5999999999999996e+00 0.0000000000000000e+00
0.0000000000000000e+00 6.5999999999999996e+00 0.0000000000000000e+00
ITEM: ATOMS id type x y z fx fy fz
1 1 6.5241 0.141208 0.211308 3.82267 -3.68555 -4.54501
2 1 6.52136 6.46454 3.11341 -1.71866 1.28619 -5.31262
3 1 6.54984 3.19521 0.0503561 2.39788 -3.46599 1.99375
4 1 0.186254 3.47962 3.29823 -4.49583 -7.23694 -3.10596
5 1 3.30916 6.55443 6.51139 1.44254 1.45757 -1.86721
6 1 3.18885 6.53961 3.20169 4.61865 -1.77461 -0.31084
7 1 3.3348 3.12144 6.38261 4.29052 0.246607 7.09975
8 1 3.39113 3.241 3.41324 -0.700275 6.6852 -3.02309
9 1 1.77094 1.64674 1.69028 2.39877 0.854657 6.29508
10 1 1.57083 1.62634 4.93889 -7.14249 3.99261 4.67368
11 1 1.70235 5.03009 1.82852 -2.01325 0.0606463 -3.14766
12 1 1.49548 4.94754 5.05911 -1.29125 -2.08365 -4.22984
13 1 4.78228 1.90549 1.65576 1.93577 -6.19146 1.14203
14 1 5.01957 1.45962 4.72323 -2.9176 5.95493 -0.146813
15 1 4.92489 5.04337 1.69757 -4.32369 5.20242 3.23287
16 1 5.12814 5.00375 5.02441 3.69625 -1.30263 1.25187
ITEM: TIMESTEP
7000
ITEM: NUMBER OF ATOMS
16
ITEM: BOX BOUNDS xy xz yz pp pp pp
0.0000000000000000e+00 6.5999999999999996e+00 0.0000000000000000e+00
0.0000000000000000e+00 6.5999999999999996e+00 0.0000000000000000e+00
0.0000000000000000e+00 6.5999999999999996e+00 0.0000000000000000e+00
ITEM: ATOMS id type x y z fx fy fz
1 1 0.0140038 -0.0135106 6.61578 1.63972 -4.55314 3.0198
2 1 0.272168 6.65878 3.19486 2.73572 -5.39744 -0.275354
3 1 6.59384 3.31544 6.43695 -2.43057 0.846945 0.168385
4 1 0.0729503 3.08972 3.23767 -0.189998 -0.446643 1.06191
5 1 3.24339 6.39449 6.44168 -2.34745 6.55691 0.814587
6 1 3.42174 0.0919878 3.18433 2.85512 0.263149 1.30188
7 1 3.26621 3.35654 0.119399 -5.98408 2.14236 -3.62492
8 1 3.20505 3.3896 3.41055 5.04033 5.70907 -6.78993
9 1 1.52394 1.7022 1.81889 3.09972 4.63645 3.09278
10 1 1.82831 1.38381 5.09474 1.52987 5.84076 4.91789
11 1 1.46722 4.9261 1.49783 -0.285872 1.41151 1.485
12 1 1.59385 4.75181 5.09499 4.60786 -1.28272 -5.70246
13 1 4.90415 1.78811 1.65455 -7.62099 0.566635 -1.79824
14 1 5.01829 1.79808 4.90221 5.06312 -5.22196 3.32911
15 1 4.89963 5.1695 1.69633 -7.79124 -7.75662 -6.06825
16 1 4.87525 4.99734 4.99923 0.0787312 -3.31527 5.0678
ITEM: TIMESTEP
8000
ITEM: NUMBER OF ATOMS
16
ITEM: BOX BOUNDS xy xz yz pp pp pp
0.0000000000000000e+00 6.5999999999999996e+00 0.0000000000000000e+00
0.0000000000000000e+00 6.5999999999999996e+00 0.0000000000000000e+00
0.0000000000000000e+00 6.5999999999999996e+00 0.0000000000000000e+00
ITEM: ATOMS id type x y z fx fy fz
1 1 6.65089 0.0569242 6.33761 -0.428969 1.11394 2.8563
2 1 0.0296464 0.111258 3.23654 2.37894 0.338095 -4.99783
3 1 0.227682 3.24673 0.0944833 1.14342 3.88097 -6.43595
4 1 6.59083 3.18229 3.25173 -0.527208 -3.64583 4.56014
5 1 3.25123 -0.0294674 0.103239 4.27636 2.94794 2.79984
6 1 3.18101 6.50219 3.47507 -0.84439 -2.51197 -1.96805
7 1 3.35903 3.27075 -0.0236584 -3.03941 -3.61177 0.895785
8 1 3.13651 3.41157 3.09904 3.86001 0.259501 3.77535
9 1 1.81232 1.70146 1.82889 -3.83236 5.89488 -0.840138
10 1 1.82381 1.77596 5.20737 -4.20325 3.6554 -1.23569
11 1 1.38046 5.12129 1.78751 -2.25423 -0.5296 -0.955077
12 1 1.77278 5.0129 4.95046 3.94812 -2.40105 4.08565
13 1 4.86702 1.75951 1.82029 4.52281 -3.22223 -7.67928
14 1 4.89113 1.52795 4.9947 -1.90477 0.15507 6.08307
15 1 4.65981 4.96159 1.39333 -3.05678 -1.29728 4.20562
16 1 5.16585 4.5871 4.6434 -0.0382753 -1.02607 -5.14975
ITEM: TIMESTEP
9000
ITEM: NUMBER OF ATOMS
16
ITEM: BOX BOUNDS xy xz yz pp pp pp
0.0000000000000000e+00 6.5999999999999996e+00 0.0000000000000000e+00
0.0000000000000000e+00 6.5999999999999996e+00 0.0000000000000000e+00
0.0000000000000000e+00 6.5999999999999996e+00 0.0000000000000000e+00
ITEM: ATOMS id type x y z fx fy fz
1 1 0.149289 6.39618 6.51339 1.74316 4.46122 -1.72138
2 1 6.25308 6.41167 3.31137 4.8383 -3.91371 3.29709
3 1 6.63375 2.98662 0.139452 1.13977 0.622322 -2.65533
4 1 6.51347 3.15619 3.3821 4.21124 -1.49915 -7.37582
5 1 3.44973 6.5648 0.102968 -5.64546 -4.16765 4.23327
6 1 3.30833 -0.0535294 3.415 2.84923 -1.06811 1.00209
7 1 3.27176 3.25546 -0.0493937 -0.122987 -0.738077 -0.10088
8 1 3.28722 3.62145 3.31284 0.15189 4.62258 1.21927
9 1 1.77816 1.68656 1.65764 -2.36312 2.51993 3.1902
10 1 1.74495 1.7211 4.76587 -6.50065 -2.66744 -0.331728
11 1 1.62314 5.32177 1.62236 5.47722 3.50356 1.06309
12 1 1.60272 4.82599 4.8694 -1.74213 -1.13115 1.06082
13 1 5.04288 1.79567 1.53874 -3.8469 -1.18885 2.34723
14 1 4.95038 1.50865 4.95723 1.03851 -2.33985 -5.30427
15 1 4.99124 5.14059 1.56915 -0.289253 3.1432 1.82539
16 1 4.79989 5.06082 5.09189 -0.938821 -0.158821 -1.74905
ITEM: TIMESTEP
10000
ITEM: NUMBER OF ATOMS
16
ITEM: BOX BOUNDS xy xz yz pp pp pp
0.0000000000000000e+00 6.5999999999999996e+00 0.0000000000000000e+00
0.0000000000000000e+00 6.5999999999999996e+00 0.0000000000000000e+00
0.0000000000000000e+00 6.5999999999999996e+00 0.0000000000000000e+00
ITEM: ATOMS id type x y z fx fy fz
1 1 6.52593 0.0962419 6.49022 1.87841 -0.0906252 4.59703
2 1 0.0586018 0.0936938 3.24188 -0.350031 -4.10868 -5.23148
3 1 0.13123 3.42525 6.63134 -2.38497 2.86744 0.721324
4 1 6.51656 3.38799 3.21525 2.59208 -4.45666 1.15469
5 1 3.34093 6.44238 0.0204796 2.16762 5.86559 -2.47616
6 1 3.21955 6.67938 3.3562 -1.2059 4.31315 1.22017
7 1 3.4285 3.14491 -0.0179095 4.63298 3.70512 2.58189
8 1 3.26746 3.39691 3.39451 -0.128643 2.62779 -4.94146
9 1 1.55954 1.70851 1.85605 -4.13029 1.86917 -3.73953
10 1 1.75076 1.51053 5.01427 2.66883 -1.84508 4.89165
11 1 1.59343 4.74526 1.57359 0.399038 -0.104585 -2.47324
12 1 1.53929 4.87829 4.82681 0.282605 -2.49093 -0.19039
13 1 5.1477 1.68342 1.68503 -3.91799 0.963473 -2.36356
14 1 5.02952 1.6808 4.80944 -1.39022 2.18034 1.21901
15 1 4.75485 5.00769 1.53058 4.26077 -6.23073 5.95043
16 1 4.93615 4.91874 5.17226 -5.37429 -5.06479 -0.92039
ITEM: TIMESTEP
11000
ITEM: NUMBER OF ATOMS
16
ITEM: BOX BOUNDS xy xz yz pp pp pp
0.0000000000000000e+00 6.5999999999999996e+00 0.0000000000000000e+00
0.0000000000000000e+00 6.5999999999999996e+00 0.0000000000000000e+00
0.0000000000000000e+00 6.5999999999999996e+00 0.0000000000000000e+00
ITEM: ATOMS id type x y z fx fy fz
1 1 0.150838 0.04756 6.40599 -5.44983 4.37017 -2.93584
2 1 6.60588 6.58384 3.16326 5.86191 5.85721 -0.561677
3 1 6.31653 3.29102 0.0237392 -2.85063 -3.8087 -2.13049
4 1 6.60299 3.37492 3.23704 -1.9198 -4.98107 5.65785
5 1 3.13817 0.128021 0.190894 0.503754 3.89698 0.0596487
6 1 3.36395 0.040935 3.39452 -4.26378 0.839148 -6.11354
7 1 3.51605 3.24846 0.107863 -2.29948 -4.92364 -0.492893
8 1 3.29206 3.32446 3.16356 0.383531 5.71089 5.4131
9 1 1.49108 1.51227 1.60628 -1.04093 -3.62962 -5.98948
10 1 1.41791 1.91633 4.93358 6.77309 1.88454 3.0338
11 1 1.70848 4.9198 1.91331 -3.59528 -1.16333 -3.71912
12 1 1.88702 4.93315 5.06888 3.70304 3.35507 -3.81575
13 1 5.08882 1.49542 1.53983 -3.74081 -3.97135 6.73381
14 1 4.80815 1.69476 4.91164 2.99398 -1.91254 1.8678
15 1 4.82178 4.87826 1.64325 2.88159 2.18075 5.44771
16 1 5.19031 4.81079 4.89637 2.05966 -3.70448 -2.45491
ITEM: TIMESTEP
12000
ITEM: NUMBER OF ATOMS
16
ITEM: BOX BOUNDS xy xz yz pp pp pp
0.0000000000000000e+00 6.5999999999999996e+00 0.0000000000000000e+00
0.0000000000000000e+00 6.5999999999999996e+00 0.0000000000000000e+00
0.0000000000000000e+00 6.5999999999999996e+00 0.0000000000000000e+00
ITEM: ATOMS id type x y z fx fy fz
1 1 6.52476 0.224849 -0.0653503 -5.23028 -1.31998 -3.71734
2 1 -0.0615969 6.58584 3.30469 -5.11872 4.08612 2.0845
3 1 0.049217 3.41609 6.29042 -1.38745 -5.57104 2.24456
4 1 6.66944 3.27524 3.09926 -0.551992 6.85342 -2.81856
5 1 3.45267 6.42439 0.163109 1.70877 -2.64455 -2.29533
6 1 3.25845 0.0555557 3.48123 4.57383 0.471789 1.21988
7 1 3.36162 3.19485 0.0617884 -5.28598 3.77264 -1.23662
8 1 3.26139 3.36351 3.33882 2.48212 0.742359 -4.6492
9 1 1.44437 1.76949 1.54079 -0.709591 3.88781 5.7847
10 1 1.74744 1.72214 5.17349 2.09028 -3.83577 3.01876
11 1 1.77984 5.11771 1.66728 0.564387 1.82835 3.43717
12 1 1.60842 4.95904 5.08438 -3.47783 -4.28954 -2.52441
13 1 4.7352 1.3583 1.81536 4.96983 -1.10474 1.86675
14 1 4.98948 1.63604 5.08002 -3.00368 -3.59572 -2.34208
15 1 4.95333 4.72489 1.52089 3.58951 -4.16564 3.89532
16 1 5.02598 4.97206 4.64384 4.78679 4.88448 -3.9681
ITEM: TIMESTEP
13000
ITEM: NUMBER OF ATOMS
16
ITEM: BOX BOUNDS xy xz yz pp pp pp
0.0000000000000000e+00 6.5999999999999996e+00 0.0000000000000000e+00
0.0000000000000000e+00 6.5999999999999996e+00 0.0000000000000000e+00
0.0000000000000000e+00 6.5999999999999996e+00 0.0000000000000000e+00
ITEM: ATOMS id type x y z fx fy fz
1 1 0.165617 0.138151 0.0308477 -0.153019 -1.79053 5.08487
2 1 0.0845347 6.49479 3.38006 -3.20383 1.37243 2.07429
3 1 -0.0431718 3.34497 6.5456 0.589446 2.89682 3.46529
4 1 0.147797 3.18592 2.96595 -5.79688 -2.02995 2.60942
5 1 3.23488 6.55218 0.146992 -3.98719 -1.68122 -1.01151
6 1 3.29583 6.56658 3.39265 -2.14116 0.629908 -2.34182
7 1 3.41314 3.28564 6.46893 -1.99738 -0.655877 4.45729
8 1 3.34141 3.57115 3.1085 -1.14825 0.221755 -3.83502
9 1 1.56557 1.67124 1.85321 7.62648 0.340252 -3.07384
10 1 1.71972 1.89966 5.1327 -5.03715 -4.90853 -2.63051
11 1 1.45701 4.90799 1.76173 6.52033 6.21396 -3.90395
12 1 1.48273 4.76882 4.93405 -1.72557 5.2 -1.27684
13 1 4.96428 1.39317 1.71352 -5.41017 3.05774 -2.87241
14 1 4.97241 1.71913 4.77181 3.31953 -1.94517 5.81601
15 1 5.02232 4.95048 1.44056 5.68023 -2.25845 0.154465
16 1 4.77592 4.95014 5.15288 6.86458 -4.66314 -2.71574
ITEM: TIMESTEP
14000
ITEM: NUMBER OF ATOMS
16
ITEM: BOX BOUNDS xy xz yz pp pp pp
0.0000000000000000e+00 6.5999999999999996e+00 0.0000000000000000e+00
0.0000000000000000e+00 6.5999999999999996e+00 0.0000000000000000e+00
0.0000000000000000e+00 6.5999999999999996e+00 0.0000000000000000e+00
ITEM: ATOMS id type x y z fx fy fz
1 1 0.0142214 0.159529 -0.0756139 5.73023 2.45262 6.44425
2 1 6.4517 0.138994 3.39078 -2.76227 -2.98128 -3.05445
3 1 0.024105 3.43083 0.130086 -1.52487 -0.0502997 -3.90921
4 1 0.0944477 3.28373 3.50099 1.88106 -0.63615 1.5351
5 1 3.38734 6.55548 6.34659 5.66841 3.06573 4.35684
6 1 3.18587 0.0733982 3.35426 -0.511035 -1.93934 -5.21518
7 1 3.18536 3.28893 6.41103 0.491343 -4.44233 3.77662
8 1 3.36207 3.2898 3.1325 5.29312 -6.56268 -3.37921
9 1 1.69494 1.42088 1.6933 -1.77194 -1.01867 -2.3283
10 1 1.38424 1.54442 5.11858 -2.95714 -4.31375 0.355708
11 1 1.7898 4.8914 1.51334 0.429335 -1.42485 6.44655
12 1 1.60108 4.71439 4.85676 -2.13205 6.39238 -1.68777
13 1 5.05597 1.64212 1.68949 -5.02614 1.4864 4.75521
14 1 4.91021 1.79311 4.96892 5.1465 3.34137 0.490561
15 1 4.99355 4.88218 1.88425 -4.65557 1.70445 -4.69618
16 1 5.0651 5.09079 4.88475 -3.29899 4.92639 -3.89054
ITEM: TIMESTEP
15000
ITEM: NUMBER OF ATOMS
16
ITEM: BOX BOUNDS xy xz yz pp pp pp
0.0000000000000000e+00 6.5999999999999996e+00 0.0000000000000000e+00
0.0000000000000000e+00 6.5999999999999996e+00 0.0000000000000000e+00
0.0000000000000000e+00 6.5999999999999996e+00 0.0000000000000000e+00
ITEM: ATOMS id type x y z fx fy fz
1 1 0.0160154 0.0236523 -0.0191154 1.77962 -2.99972 3.86137
2 1 6.52466 6.63822 3.44738 2.95328 0.826431 -3.93399
3 1 6.54934 3.22982 0.0348171 2.4748 -3.20858 5.64308
4 1 6.5643 3.23865 3.3468 -2.41391 -0.867475 2.37451
5 1 3.36882 6.46873 0.0497492 -4.07564 2.38832 2.79681
6 1 3.27102 0.16948 3.1635 -4.05208 -3.00965 5.40645
7 1 3.43308 3.19398 0.144119 0.307442 4.31718 -4.88065
8 1 3.20174 3.47069 3.152 -0.742078 2.30687 -3.85999
9 1 1.64537 1.67704 1.81265 0.198005 0.847511 -2.81239
10 1 1.63673 1.80877 4.97391 4.04266 -0.64784 5.41327
11 1 1.77347 4.9675 1.5409 -4.07685 4.47712 5.74605
12 1 1.61074 5.18433 5.03899 3.00295 -1.18916 -3.23021
13 1 4.91863 1.49711 1.63109 0.282786 -4.87593 -5.41774
14 1 4.65293 1.52581 5.18425 2.9307 -2.61987 3.99377
15 1 5.29618 4.87802 1.40081 -2.80567 4.30323 -5.88683
16 1 4.93696 4.82819 4.69815 0.193996 -0.048438 -5.21351
ITEM: TIMESTEP
16000
ITEM: NUMBER OF ATOMS
16
ITEM: BOX BOUNDS xy xz yz pp pp pp
0.0000000000000000e+00 6.5999999999999996e+00 0.0000000000000000e+00
0.0000000000000000e+00 6.5999999999999996e+00 0.0000000000000000e+00
0.0000000000000000e+00 6.5999999999999996e+00 0.0000000000000000e+00
ITEM: ATOMS id type x y z fx fy fz
1 1 6.37006 0.11018 0.000950448 -3.41525 2.52575 -3.7079
2 1 6.44729 0.0904594 3.13454 6.06767 -2.0227 2.50237
3 1 0.196077 3.20739 6.51142 -4.29418 3.3147 -4.03272
4 1 0.0459715 3.27019 3.22628 6.61834 -0.642771 -1.26916
5 1 3.35202 6.58041 0.00896084 3.68127 4.00757 0.0159169
6 1 3.15051 0.147727 3.28967 -5.02688 1.74381 5.76828
7 1 3.39992 3.22381 0.0329737 1.65556 -5.3948 -2.04479
8 1 3.46762 3.25501 3.34619 -2.89422 -6.3386 -3.87447
9 1 1.56353 1.57012 1.36995 -2.50717 -4.77766 6.53405
10 1 1.37179 1.65488 4.99321 -0.998097 -3.26678 1.20477
11 1 1.86957 4.84625 1.73242 1.6593 4.83559 0.681674
12 1 1.65532 4.964 5.02718 4.41174 2.93845 3.33865
13 1 4.924 1.59236 1.84591 3.4512 -3.74001 -1.3157
14 1 5.02795 1.69277 5.11527 -3.09471 4.72473 -2.34518
15 1 5.07923 5.01744 1.67249 -3.47078 -2.59565 2.61137
16 1 4.87913 4.977 4.89258 -1.84378 4.68836 -4.06718
ITEM: TIMESTEP
17000
ITEM: NUMBER OF ATOMS
16
ITEM: BOX BOUNDS xy xz yz pp pp pp
0.0000000000000000e+00 6.5999999999999996e+00 0.0000000000000000e+00
0.0000000000000000e+00 6.5999999999999996e+00 0.0000000000000000e+00
0.0000000000000000e+00 6.5999999999999996e+00 0.0000000000000000e+00
ITEM: ATOMS id type x y z fx fy fz
1 1 0.213174 6.44073 0.0423219 -6.36689 -3.96751 -3.23618
2 1 6.57019 6.51853 3.45176 2.24645 -5.11905 -4.45499
3 1 0.166786 3.48144 6.27421 -1.83166 -0.150792 7.3093
4 1 6.56323 3.27647 3.2123 -1.14709 0.389402 3.33555
5 1 3.10031 0.121412 6.53072 6.48877 -0.0341606 4.66309
6 1 3.38183 0.18617 3.43319 -4.43743 -5.10039 -6.17237
7 1 3.4413 3.3159 6.73783 2.20019 -4.70868 3.86929
8 1 3.25569 3.41833 3.27034 3.24231 6.72871 5.53618
9 1 1.63658 1.23305 1.73206 -5.6432 4.78807 6.48388
10 1 1.3913 1.51791 4.94967 7.33146 7.01363 -4.79994
11 1 1.70656 4.66501 1.59446 -4.77111 -3.46283 -4.46327
12 1 1.58509 5.11574 4.83533 0.371628 1.73214 -5.13206
13 1 4.8505 1.63335 1.58247 2.59187 -0.816562 1.00931
14 1 4.95113 1.79977 4.89746 1.58871 0.714972 -5.61419
15 1 5.06742 5.00579 1.83265 -2.7049 -1.99823 3.94372
16 1 4.91889 5.07041 5.02324 0.840901 3.99128 -2.27732
ITEM: TIMESTEP
18000
ITEM: NUMBER OF ATOMS
16
ITEM: BOX BOUNDS xy xz yz pp pp pp
0.0000000000000000e+00 6.5999999999999996e+00 0.0000000000000000e+00
0.0000000000000000e+00 6.5999999999999996e+00 0.0000000000000000e+00
0.0000000000000000e+00 6.5999999999999996e+00 0.0000000000000000e+00
ITEM: ATOMS id type x y z fx fy fz
1 1 6.52686 0.252388 6.45665 7.02324 -7.8343 2.48704
2 1 6.52971 0.101011 3.32356 5.13625 -2.05439 5.32806
3 1 0.0293156 3.28429 0.179105 4.49299 -1.20658 -3.53155
4 1 0.0328511 3.36366 3.33403 1.42899 3.73992 5.18866
5 1 3.45978 6.55398 6.60363 -3.74248 -0.651074 -1.10849
6 1 2.8811 6.29624 3.28718 -0.762791 -4.14895 -1.03757
7 1 3.40231 3.24739 6.37213 1.29726 -0.608722 -0.555832
8 1 3.28656 3.06655 3.17929 -0.29905 -1.72878 3.13387
9 1 1.70471 1.61 1.63403 -1.74343 2.11621 -2.46314
10 1 1.64924 1.89057 4.98491 -2.25655 2.24986 0.289814
11 1 1.59421 4.92463 1.46673 -1.62533 1.64123 -2.47894
12 1 1.79191 5.0189 5.03665 0.330491 1.41693 -1.27941
13 1 5.21208 1.55878 1.82049 -5.75645 3.79816 -3.62918
14 1 4.88642 1.79521 4.90885 -2.65433 3.54844 5.06938
15 1 4.94874 4.84876 1.82316 3.02884 -5.99404 -1.56181
16 1 4.8642 4.98765 4.98961 -3.89765 5.71609 -3.8509
ITEM: TIMESTEP
19000
ITEM: NUMBER OF ATOMS
16
ITEM: BOX BOUNDS xy xz yz pp pp pp
0.0000000000000000e+00 6.5999999999999996e+00 0.0000000000000000e+00
0.0000000000000000e+00 6.5999999999999996e+00 0.0000000000000000e+00
0.0000000000000000e+00 6.5999999999999996e+00 0.0000000000000000e+00
ITEM: ATOMS id type x y z fx fy fz
1 1 6.46002 0.178573 0.0276957 -0.148167 2.12553 1.08591
2 1 0.107238 6.55878 3.43103 0.97749 -0.014304 -6.09859
3 1 6.55161 3.3406 6.53627 0.898601 -1.27314 -0.340241
4 1 6.50385 3.24781 3.37271 -4.45956 -1.65689 1.71215
5 1 3.19885 6.5055 6.5211 -4.5782 -0.373054 3.92481
6 1 3.32003 0.00592602 3.14429 3.13436 -3.39535 5.91776
7 1 3.44868 3.27099 0.0676374 2.9943 2.50717 -5.33176
8 1 3.23252 3.13832 3.34838 -0.535678 0.619378 0.712291
9 1 1.77749 1.73536 1.56333 0.387961 1.89885 -0.961332
10 1 1.60345 1.61259 4.79834 0.061127 -2.40257 -1.42951
11 1 1.64276 4.98038 1.76952 2.83382 1.71718 0.365085
12 1 1.63685 4.76339 4.9478 -5.92655 1.8664 2.44841
13 1 5.07889 1.49563 1.74514 4.20299 3.35938 2.13164
14 1 4.84333 1.71888 5.05093 -5.24112 -7.17959 -5.41873
15 1 5.04404 4.94306 1.67479 1.73107 2.21379 0.14506
16 1 4.95038 5.30421 4.80102 3.66754 -0.0127707 1.13704
ITEM: TIMESTEP
20000
ITEM: NUMBER OF ATOMS
16
ITEM: BOX BOUNDS xy xz yz pp pp pp
0.0000000000000000e+00 6.5999999999999996e+00 0.0000000000000000e+00
0.0000000000000000e+00 6.5999999999999996e+00 0.0000000000000000e+00
0.0000000000000000e+00 6.5999999999999996e+00 0.0000000000000000e+00
ITEM: ATOMS id type x y z fx fy fz
1 1 0.138438 6.5392 0.320183 -2.74584 -1.19386 -4.28221
2 1 6.43803 0.160183 3.36293 3.03341 -2.50317 1.07601
3 1 0.148756 3.35509 0.0202512 6.48168 -4.29184 -4.24602
4 1 -0.209164 3.24199 3.40244 -2.95297 -5.32991 -5.39799
5 1 3.17758 0.157526 0.151239 2.7285 3.26445 -1.18838
6 1 3.07499 -0.0364293 3.48472 1.71174 3.53503 -1.45855
7 1 3.52297 3.14525 6.29766 -4.38603 3.62801 0.318674
8 1 3.31789 3.34155 3.12922 3.86516 3.84027 -1.96135
9 1 1.67013 1.93161 1.64155 -2.15922 4.23024 7.06032
10 1 1.62683 1.57202 5.05248 2.08551 -3.54687 4.90648
11 1 1.68397 5.11143 1.483 -1.6723 -1.09965 2.05752
12 1 1.66049 4.78642 4.6165 -1.94398 0.618622 3.99592
13 1 4.9899 1.56164 1.63659 -1.66186 -0.769911 -0.0423843
14 1 4.95247 1.49301 5.0778 -0.534687 0.635368 -1.78232
15 1 4.78598 4.78194 1.72033 0.471559 0.423746 5.16371
16 1 5.22075 5.05757 4.80311 -2.32067 -1.44054 -4.21942
ITEM: TIMESTEP
21000
ITEM: NUMBER OF ATOMS
16
ITEM: BOX BOUNDS xy xz yz pp pp pp
0.0000000000000000e+00 6.5999999999999996e+00 0.0000000000000000e+00
0.0000000000000000e+00 6.5999999999999996e+00 0.0000000000000000e+00
0.0000000000000000e+00 6.5999999999999996e+00 0.0000000000000000e+00
ITEM: ATOMS id type x y z fx fy fz
1 1 -0.0131253 0.0945202 0.117835 0.984592 -0.697872 -4.71049
2 1 6.54574 -0.116172 3.26313 1.57173 2.52743 -3.53417
3 1 -0.0257585 3.16032 6.55982 -4.25585 -3.15677 5.12607
4 1 6.53254 3.33402 3.2782 2.31005 0.396082 -3.95204
5 1 3.46217 0.143797 6.54068 -3.02065 3.99913 -0.982342
6 1 3.09454 -0.066801 3.22636 -1.37653 6.99138 4.80422
7 1 3.35177 3.45593 6.64893 6.47555 -2.73631 -1.82124
8 1 3.43829 3.27202 3.27287 2.29602 -1.66013 -3.21758
9 1 1.63192 1.63717 1.63313 -4.20364 3.19239 4.94606
10 1 1.64007 1.66276 4.84195 -2.54268 -0.644871 -0.48337
11 1 1.6859 4.71274 1.95397 -1.67954 3.29602 -0.989888
12 1 1.64572 5.04814 4.96186 -3.98846 -2.05253 -0.124791
13 1 4.78522 1.64189 1.62849 6.86793 -0.559435 -1.5754
14 1 5.11163 1.6375 4.81964 5.17478 -2.89503 -0.296957
15 1 5.08817 4.85412 1.66525 -3.83179 -2.54069 1.63751
16 1 4.8252 5.12804 4.98789 -0.781522 -3.45879 5.17441
ITEM: TIMESTEP
22000
ITEM: NUMBER OF ATOMS
16
ITEM: BOX BOUNDS xy xz yz pp pp pp
0.0000000000000000e+00 6.5999999999999996e+00 0.0000000000000000e+00
0.0000000000000000e+00 6.5999999999999996e+00 0.0000000000000000e+00
0.0000000000000000e+00 6.5999999999999996e+00 0.0000000000000000e+00
ITEM: ATOMS id type x y z fx fy fz
1 1 0.0549522 6.32158 0.0616807 4.22608 2.45072 -1.12656
2 1 6.54157 0.2179 3.37041 3.70073 -4.98063 0.956831
3 1 6.41739 3.05132 0.00461015 5.73604 -4.7322 2.86206
4 1 0.114931 3.30025 3.26327 -0.0671089 0.860165 -1.53379
5 1 3.18994 0.141267 6.4954 5.76681 -4.80015 0.281199
6 1 3.1013 0.191239 3.25955 0.301402 2.56128 2.60579
7 1 3.37049 3.42064 0.0820483 -4.88702 5.91983 3.58516
8 1 3.50891 3.43777 3.29471 -2.25757 4.3131 0.818134
9 1 1.973 1.60642 1.5898 -0.96806 -1.65504 2.86614
10 1 1.67332 1.39378 4.88138 -0.46543 4.51033 -3.653
11 1 1.67843 4.97761 1.64945 -1.14349 -6.05122 -1.27862
12 1 1.48085 4.62244 4.95025 -5.48411 3.76261 -5.65928
13 1 4.91361 1.70419 1.65461 -1.99898 -0.749912 6.27223
14 1 4.92312 1.7691 5.03552 -2.24038 -3.37781 -5.83762
15 1 5.04871 5.02213 1.68032 1.16003 -1.18744 2.03222
16 1 4.80947 5.02236 4.92698 -1.37893 3.15636 -3.19089
ITEM: TIMESTEP
23000
ITEM: NUMBER OF ATOMS
16
ITEM: BOX BOUNDS xy xz yz pp pp pp
0.0000000000000000e+00 6.5999999999999996e+00 0.0000000000000000e+00
0.0000000000000000e+00 6.5999999999999996e+00 0.0000000000000000e+00
0.0000000000000000e+00 6.5999999999999996e+00 0.0000000000000000e+00
ITEM: ATOMS id type x y z fx fy fz
1 1 0.304617 6.51091 0.0717718 4.7444 2.16608 -4.26728
2 1 6.52882 0.0529849 3.39244 0.566698 -1.10122 -3.69178
3 1 0.0655608 3.36798 6.56319 3.15119 0.650803 5.07544
4 1 6.34743 3.15141 3.36109 0.39795 1.53432 2.52144
5 1 3.53587 0.0342665 6.47788 0.0653797 -1.12633 2.48861
6 1 3.18734 0.114483 3.20535 3.19496 5.01435 -6.41218
7 1 3.33477 3.28107 6.41098 -0.847692 3.58356 1.256
8 1 3.27738 3.63509 3.36105 3.02915 -4.32583 1.0546
9 1 1.52824 1.57674 1.56504 -3.42931 1.72129 4.20369
10 1 1.68844 1.71956 4.93801 -3.61634 4.2814 3.60764
11 1 1.56209 4.95614 1.71112 -4.92176 -5.33713 1.34489
12 1 1.7111 5.01558 5.06758 4.26877 -2.51534 -1.31899
13 1 4.79091 1.52234 1.7627 1.95799 -6.14553 1.43063
14 1 5.065 1.61051 4.96828 -3.91048 5.27339 -5.70476
15 1 4.87127 4.73909 1.58046 -2.99775 0.170029 -0.313825
16 1 5.00117 4.91185 4.96304 -1.65315 -3.84384 -1.2741
ITEM: TIMESTEP
24000
ITEM: NUMBER OF ATOMS
16
ITEM: BOX BOUNDS xy xz yz pp pp pp
0.0000000000000000e+00 6.5999999999999996e+00 0.0000000000000000e+00
0.0000000000000000e+00 6.5999999999999996e+00 0.0000000000000000e+00
0.0000000000000000e+00 6.5999999999999996e+00 0.0000000000000000e+00
ITEM: ATOMS id type x y z fx fy fz
1 1 6.4158 6.5888 0.380798 5.75178 -2.94804 2.7004
2 1 0.0290291 6.34892 3.16052 5.69903 4.12414 3.07339
3 1 0.0230959 3.3282 0.0641518 -3.90957 -4.98173 -0.771258
4 1 0.24664 3.11098 3.4268 -0.57004 4.79516 0.531127
5 1 3.2617 0.139912 6.50001 5.46827 1.80233 4.62757
6 1 3.32817 0.0673952 3.10921 4.44932 0.10143 -3.23895
7 1 2.88789 3.46103 0.0194172 -2.98692 -1.75412 -0.431759
8 1 3.58034 3.1955 3.31502 3.64932 5.18381 -4.80491
9 1 1.80578 1.48229 1.31513 -2.83363 -6.06938 -3.64485
10 1 1.69341 1.6302 4.88517 5.11156 4.78874 -3.19987
11 1 1.88275 4.92327 1.78751 -7.00294 -6.97374 -4.14852
12 1 1.41094 5.06364 5.08007 -1.1573 4.84062 -2.59945
13 1 5.01875 1.85454 1.70853 -2.58163 0.535146 3.1087
14 1 5.19215 1.78658 4.90482 -6.95131 -2.56012 6.18185
15 1 4.73264 4.9021 1.5765 -1.40743 -5.41778 -2.15316
16 1 4.69092 4.91664 4.96633 -0.72851 4.53353 4.76968
ITEM: TIMESTEP
25000
ITEM: NUMBER OF ATOMS
16
ITEM: BOX BOUNDS xy xz yz pp pp pp
0.0000000000000000e+00 6.5999999999999996e+00 0.0000000000000000e+00
0.0000000000000000e+00 6.5999999999999996e+00 0.0000000000000000e+00