BEGIN_CFG
 Size
    16
 Supercell
         6.600000      0.000000      0.000000
         0.000000      6.600000      0.000000
         0.000000      0.000000      6.600000
 AtomData:  id type       cartes_x      cartes_y      cartes_z           fx          fy          fz
             1    0       6.598190      6.599890      6.599920     0.007760    0.000197    0.001724
             2    0       6.599210      0.000966      3.300510     0.006272   -0.005003   -0.002128
             3    0       6.598880      3.300050      0.000111     0.006970    0.001335   -0.000603
             4    0       6.599920      3.299560      3.300060    -0.001366    0.005073    0.000522
             5    0       3.298870      6.599930      0.000430     0.000357   -0.004092   -0.004083
             6    0       3.300440      6.598850      3.299330    -0.003958    0.002523    0.004854
             7    0       3.300200      3.298590      6.599890    -0.003378    0.008240   -0.003108
             8    0       3.298990      3.298720      3.298740     0.005751    0.003808    0.006437
             9    0       1.650720      1.650850      1.650300    -0.003025   -0.003259    0.003387
            10    0       1.650330      1.650370      4.951870    -0.001763   -0.005984   -0.008532
            11    0       1.650630      4.950910      1.649350    -0.004447   -0.001830    0.001661
            12    0       1.651050      4.948770      4.949230    -0.000661    0.006706    0.001211
            13    0       4.950870      1.651020      1.649090    -0.002395   -0.005208    0.006954
            14    0       4.949980      1.650230      4.950570    -0.000478    0.001655   -0.006220
            15    0       4.950020      4.950070      1.649760     0.001505    0.001996    0.004542
            16    0       4.951700      4.951220      4.950850    -0.007144   -0.006156   -0.006617
 Energy
       -119.446710000000
 Feature   mindist	2.854553
END_CFG

BEGIN_CFG
 Size
    16
 Supercell
    6.6    0    0
    0    6.6    0
    0    0    6.6
 AtomData:  id type    cartes_x    cartes_y    cartes_z    fx    fy    fz
    1    0    0.0    0.0    0.0    -9.85323e-16    -9.85323e-16    -5.55112e-17
    2    0    0.0    0.0    3.3    -7.49401e-16    -7.49401e-16    -2.77556e-17
    3    0    0.0    3.3    0.0    -8.04912e-16    4.44089e-16    -4.16334e-16
    4    0    0.0    3.3    3.3    -7.35523e-16    -1.66533e-16    5.55112e-17
    5    0    3.3    0.0    0.0    4.44089e-16    -8.04912e-16    -4.16334e-16
    6    0    3.3    0.0    3.3    -1.66533e-16    -7.35523e-16    5.55112e-17
    7    0    3.3    3.3    0.0    1.38778e-16    1.38778e-16    -6.93889e-16
    8    0    3.3    3.3    3.3    1.11022e-16    1.11022e-16    -2.35922e-16
    9    0    1.65    1.65    1.65    -2.47025e-15    -2.47025e-15    -2.52576e-15
    10    0    1.65    1.65    4.95    -2.44249e-15    -2.44249e-15    3.46945e-15
    11    0    1.65    4.95    1.65    -2.55351e-15    3.38618e-15    -2.498e-15
    12    0    1.65    4.95    4.95    -2.52576e-15    2.80331e-15    2.83107e-15
    13    0    4.95    1.65    1.65    3.38618e-15    -2.53964e-15    -2.498e-15
    14    0    4.95    1.65    4.95    2.80331e-15    -2.52576e-15    2.83107e-15
    15    0    4.95    4.95    1.65    3.19189e-15    3.17801e-15    -3.44169e-15
    16    0    4.95    4.95    4.95    3.33067e-15    3.34455e-15    3.38618e-15
 Energy
    -119.44671999999997
END_CFG

BEGIN_CFG
 Size
    16
 Supercell
    6.6    0    0
    0    6.6    0
    0    0    6.6
 AtomData:  id type    cartes_x    cartes_y    cartes_z    fx    fy    fz
    1    0    6.59743    6.59986    6.59998    0.012499    -0.000949376    0.0025157
    2    0    6.59872    0.001632    3.3009    0.00940492    -0.00797442    -0.00401778
    3    0    6.59885    3.29983    0.000368    0.00868441    0.0036931    -0.00292285
    4    0    6.59943    3.29951    3.29989    0.000492602    0.00719826    0.00238137
    5    0    3.29903    0.000496    0.000851    -0.00226935    -0.00955163    -0.00604384
    6    0    3.30055    6.59803    3.29928    -0.00573355    0.00461808    0.00590381
    7    0    3.30048    3.2978    6.59976    -0.00509388    0.0147158    -0.00382907
    8    0    3.29851    3.2979    3.29846    0.00662708    0.00588982    0.00793196
    9    0    1.6513    1.65122    1.65054    -0.00557634    -0.00492675    0.00477717
    10    0    1.6504    1.65049    4.95268    -0.00350112    -0.00723019    -0.0121456
    11    0    1.65099    4.95129    1.64865    -0.00667462    -0.00240504    0.00393924
    12    0    1.65139    4.94876    4.94876    -0.00202602    0.00727248    0.00166854
    13    0    4.9513    1.65145    1.64841    -0.00273629    -0.00851809    0.0126397
    14    0    4.94962    1.65031    4.95117    0.00133721    0.00269911    -0.0113799
    15    0    4.95005    4.94962    1.64973    0.00235174    0.00478354    0.00430377
    16    0    4.95193    4.95179    4.95055    -0.00778576    -0.00931471    -0.00572221
 Energy
    -119.4466
END_CFG

BEGIN_CFG
 Size
    16
 Supercell
    6.6    0    0
    0    6.6    0
    0    0    6.6
 AtomData:  id type    cartes_x    cartes_y    cartes_z    fx    fy    fz
    1    0    6.59895    6.59977    6.59986    0.0042242    0.000973226    0.00154865
    2    0    6.5993    0.000344    3.30022    0.00582585    -0.00143574    -0.00123979
    3    0    6.59896    3.29998    6.59986    0.00602859    0.000337788    0.00117408
    4    0    0.000136    3.29996    3.30019    -0.00194646    0.00144247    -0.000960279
    5    0    3.29905    6.59978    6.5e-05    0.00117834    -0.000419039    -0.00103048
    6    0    3.3006    6.59947    3.29974    -0.00451849    0.00112509    0.001735
    7    0    3.30012    3.29944    2e-05    -0.00304067    0.00257094    -0.00297169
    8    0    3.29936    3.29929    3.29896    0.00435178    0.00217253    0.00553274
    9    0    1.65045    1.65032    1.65032    -0.00199299    -0.00168335    0.00105168
    10    0    1.65029    1.65014    4.95103    -0.000930796    -0.00340032    -0.0043537
    11    0    1.65044    4.95031    1.64983    -0.0034787    -0.000403122    -0.000266002
    12    0    1.65068    4.94912    4.94946    -0.000540794    0.00427205    0.00151704
    13    0    4.95058    1.65079    1.64962    -0.00146997    -0.00319936    0.00276257
    14    0    4.95022    1.64999    4.95022    -0.00120858    0.00244893    -0.0025846
    15    0    4.94985    4.95033    1.64981    0.00180879    0.000350634    0.00345694
    16    0    4.95101    4.95094    4.9508    -0.00429009    -0.00515273    -0.00537218
 Energy
    -119.44676000000003
END_CFG

BEGIN_CFG
 Size
    16
 Supercell
    6.6    0    0
    0    6.6    0
    0    0    6.6
 AtomData:  id type    cartes_x    cartes_y    cartes_z    fx    fy    fz
    1    0    6.59639    6.59974    0.000136    0.0179151    -0.0012316    0.00228389
    2    0    6.59851    0.002727    3.30122    0.011546    -0.0137538    -0.00488683
    3    0    6.59879    3.29983    0.000806    0.0101192    0.00471226    -0.00668092
    4    0    6.5989    3.29925    3.2994    0.00329229    0.011423    0.00610183
    5    0    3.2991    0.000844    0.001252    -0.00465683    -0.0137478    -0.00883669
    6    0    3.30059    6.59766    3.29912    -0.0069167    0.00382674    0.00810892
    7    0    3.30076    3.29722    6.59981    -0.00640444    0.0196488    -0.00573298
    8    0    3.29809    3.2969    3.29801    0.00669577    0.010041    0.0105966
    9    0    1.65215    1.65137    1.65078    -0.00991963    -0.00547511    0.00512603
    10    0    1.65071    1.65045    4.95344    -0.00634615    -0.00731188    -0.0146384
    11    0    1.65162    4.95165    1.64766    -0.0102263    -0.00336285    0.00863732
    12    0    1.65154    4.94868    4.94859    -0.00391779    0.00738703    -0.000324298
    13    0    4.95155    1.65166    1.64802    -0.00149745    -0.009859    0.0162581
    14    0    4.94939    1.65041    4.9517    0.00330421    0.00328436    -0.0150609
    15    0    4.95015    4.94955    1.65006    0.00361329    0.00550195    0.00238066
    16    0    4.95174    4.95205    4.94999    -0.00660066    -0.011083    -0.00333229
 Energy
    -119.44649000000001
END_CFG

BEGIN_CFG
 Size
    16
 Supercell
    6.6    0    0
    0    6.6    0
    0    0    6.6
 AtomData:  id type    cartes_x    cartes_y    cartes_z    fx    fy    fz
    1    0    6.59448    0.000478    0.000208    0.0267748    -0.00852089    0.00238181
    2    0    6.59807    0.006611    3.30197    0.0208988    -0.0393939    -0.0067949
    3    0    6.59761    3.29912    0.003566    0.0141193    0.0122234    -0.0242596
    4    0    6.59574    3.29696    3.29888    0.0168955    0.0331457    0.0181948
    5    0    3.29879    0.002264    0.003268    -0.00481104    -0.0256637    -0.0200561
    6    0    3.30095    6.59687    3.29878    -0.0131256    0.0012955    0.0146537
    7    0    3.30068    3.29664    6.59924    -0.00472424    0.0294246    -0.0116645
    8    0    3.29558    3.29551    3.29548    0.0089187    0.0174331    0.0227195
    9    0    1.65572    1.65253    1.65168    -0.026763    -0.0105931    0.00597684
    10    0    1.65277    1.64975    4.95573    -0.0188486    -0.00488218    -0.0219105
    11    0    1.65325    4.95212    1.64329    -0.021713    -0.00186199    0.0319841
    12    0    1.65312    4.94785    4.94927    -0.0182601    0.00846138    -0.0151806
    13    0    4.95259    1.65173    1.64837    0.00206656    -0.0109751    0.0173387
    14    0    4.94885    1.64918    4.95247    0.00923193    0.012686    -0.0176986
    15    0    4.95085    4.94941    1.65095    0.00691027    0.00714595    -0.00725078
    16    0    4.95094    4.95298    4.94684    0.00242977    -0.0199246    0.0115661
 Energy
    -119.44570999999999
END_CFG

BEGIN_CFG
 Size
    16
 Supercell
    6.6    0    0
    0    6.6    0
    0    0    6.6
 AtomData:  id type    cartes_x    cartes_y    cartes_z    fx    fy    fz
    1    0    6.59345    0.001347    0.000417    0.0323867    -0.0129562    0.000266214
    2    0    6.59761    0.007688    3.30174    0.0254635    -0.0481194    -0.00477818
    3    0    6.59719    3.29913    0.004947    0.0150143    0.0145068    -0.0328074
    4    0    6.59461    3.2959    3.29878    0.0213798    0.0413572    0.0233671
    5    0    3.29901    0.003373    0.004359    -0.00696855    -0.0326611    -0.0261049
    6    0    3.30082    6.59648    3.29867    -0.0149052    0.000794518    0.0180328
    7    0    3.30043    3.29652    6.59894    -0.00259769    0.0337167    -0.0143355
    8    0    3.29437    3.29535    3.29445    0.0111593    0.01859    0.0281082
    9    0    1.65715    1.65305    1.65222    -0.0314579    -0.0139343    0.00636912
    10    0    1.65336    1.64961    4.95692    -0.0211013    -0.00412187    -0.025672
    11    0    1.65337    4.95188    1.64184    -0.0222894    0.00137155    0.0400584
    12    0    1.6534    4.94793    4.94979    -0.0203324    0.00825708    -0.0207245
    13    0    4.95348    1.65136    1.64859    0.00013636    -0.00989892    0.0163607
    14    0    4.94909    1.64845    4.95207    0.00815061    0.016828    -0.015966
    15    0    4.95146    4.94894    1.65072    0.0043517    0.00836405    -0.00868735
    16    0    4.95123    4.95299    4.94556    0.0016103    -0.0220941    0.0165134
 Energy
    -119.44524999999999
END_CFG

BEGIN_CFG
 Size
    16
 Supercell
    6.6    0    0
    0    6.6    0
    0    0    6.6
 AtomData:  id type    cartes_x    cartes_y    cartes_z    fx    fy    fz
    1    0    6.59175    0.002916    0.000476    0.0433946    -0.0181678    -0.00352492
    2    0    6.5963    0.00931    3.30092    0.036601    -0.0638669    0.000237441
    3    0    6.59563    3.30011    0.008722    0.0190641    0.0130464    -0.0553989
    4    0    6.59268    3.29336    3.29849    0.0300041    0.0577783    0.0369516
    5    0    3.29995    0.005626    0.006929    -0.0130949    -0.0448612    -0.0412088
    6    0    3.30063    6.59558    3.29829    -0.0195044    0.00186593    0.0269593
    7    0    3.29932    3.29688    6.59873    0.00222996    0.0389764    -0.0225678
    8    0    3.29237    3.29551    3.29228    0.0140047    0.017726    0.0408707
    9    0    1.65999    1.65391    1.65287    -0.0423013    -0.0191154    0.00802888
    10    0    1.65403    1.64975    4.95879    -0.0219019    -0.00472048    -0.0316444
    11    0    1.65336    4.95178    1.63867    -0.020393    0.0062659    0.0566635
    12    0    1.65425    4.94793    4.9505    -0.0257907    0.0099691    -0.0311302
    13    0    4.95459    1.65099    1.64953    -0.000766033    -0.0114488    0.0131039
    14    0    4.95015    1.64631    4.95179    0.0020675    0.0281265    -0.0128704
    15    0    4.95328    4.9473    1.65009    -0.00461114    0.0154347    -0.0107011
    16    0    4.95173    4.95274    4.94292    0.00099744    -0.0270086    0.0262311
 Energy
    -119.44393
END_CFG

BEGIN_CFG
 Size
    16
 Supercell
    6.6    0    0
    0    6.6    0
    0    0    6.6
 AtomData:  id type    cartes_x    cartes_y    cartes_z    fx    fy    fz
    1    0    6.59263    0.002286    0.000438    0.0375812    -0.0170763    -0.00210549
    2    0    6.59688    0.00866    3.30121    0.0318783    -0.0564402    -0.00146029
    3    0    6.59644    3.29941    0.006664    0.0172675    0.0154493    -0.0430059
    4    0    6.5936    3.29476    3.29878    0.0254865    0.0493899    0.0292821
    5    0    3.29938    0.004342    0.005472    -0.00964474    -0.0382585    -0.0329645
    6    0    3.30087    6.5961    3.29838    -0.0183295    0.000994711    0.0225726
    7    0    3.30008    3.29667    6.599    -0.000972642    0.036224    -0.0191203
    8    0    3.29323    3.29542    3.29327    0.0131913    0.01833    0.0351557
    9    0    1.65846    1.65331    1.65257    -0.0364324    -0.0160476    0.00726706
    10    0    1.65384    1.64978    4.95793    -0.0221684    -0.00508067    -0.0291158
    11    0    1.65344    4.95168    1.64027    -0.0221285    0.00408823    0.0485436
    12    0    1.6539    4.94785    4.95023    -0.0238675    0.00974557    -0.0264015
    13    0    4.95404    1.65107    1.64898    -0.000473018    -0.00990896    0.015413
    14    0    4.94955    1.64747    4.95206    0.00566073    0.0223912    -0.0153912
    15    0    4.95234    4.94821    1.65055    0.000585642    0.0111848    -0.0105826
    16    0    4.95132    4.95301    4.94419    0.00236557    -0.0249854    0.0219136
 Energy
    -119.44465
END_CFG

BEGIN_CFG
 Size
    16
 Supercell
    6.6    0    0
    0    6.6    0
    0    0    6.6
 AtomData:  id type    cartes_x    cartes_y    cartes_z    fx    fy    fz
    1    0    6.58566    0.007845    0.001283    0.079775    -0.0338784    -0.0163525
    2    0    6.59345    0.011229    3.29922    0.0611313    -0.0990181    0.0126707
    3    0    6.59342    3.30467    0.017562    0.0268995    0.00563566    -0.113219
    4    0    6.58512    3.28451    3.29674    0.0699285    0.105905    0.0752985
    5    0    3.30199    0.011435    0.011161    -0.0316783    -0.0855792    -0.0601624
    6    0    3.29933    6.59566    3.29972    -0.0272988    -0.00525582    0.0294263
    7    0    3.29819    3.29447    0.000168    0.0095381    0.0710299    -0.0472373
    8    0    3.28884    3.29597    3.28846    0.00653994    0.0201396    0.0681271
    9    0    1.66685    1.65703    1.65423    -0.0686582    -0.0389979    0.0233819
    10    0    1.65458    1.65058    4.96701    -0.0220859    -0.00439837    -0.0642969
    11    0    1.65242    4.95119    1.63084    -0.00299403    0.0230641    0.0917573
    12    0    1.65834    4.94885    4.94921    -0.0505075    0.00870357    -0.0429918
    13    0    4.9576    1.64978    1.65078    -0.00465996    -0.0207366    0.00549412
    14    0    4.95256    1.64231    4.94927    -0.0121622    0.0500218    0.00176592
    15    0    4.95963    4.94207    1.64763    -0.0414275    0.0407753    -0.0101635
    16    0    4.952    4.95239    4.93671    0.00766003    -0.0374109    0.0465016
 Energy
    -119.43802000000001
END_CFG

BEGIN_CFG
 Size
    16
 Supercell
    6.6    0    0
    0    6.6    0
    0    0    6.6
 AtomData:  id type    cartes_x    cartes_y    cartes_z    fx    fy    fz
    1    0    6.58918    0.004692    0.000456    0.0599952    -0.0229112    -0.00577534
    2    0    6.59493    0.009884    3.30038    0.0492256    -0.0763975    0.0031566
    3    0    6.59421    3.30186    0.012604    0.0237843    0.00890041    -0.0790608
    4    0    6.58981    3.29008    3.29824    0.0446422    0.0753402    0.0512275
    5    0    3.3012    0.007924    0.009204    -0.0229621    -0.0589123    -0.0526629
    6    0    3.30055    6.59573    3.29839    -0.0255357    -0.00179245    0.0317359
    7    0    3.29848    3.2965    6.59863    0.00567476    0.0481699    -0.0313925
    8    0    3.29064    3.29572    3.2902    0.0129464    0.0192161    0.0537856
    9    0    1.66276    1.65513    1.65381    -0.0552317    -0.0266469    0.0102412
    10    0    1.6546    1.65013    4.96143    -0.0230858    -0.00546229    -0.0403608
    11    0    1.65355    4.95164    1.63556    -0.0171586    0.0123631    0.0725149
    12    0    1.65575    4.94825    4.95085    -0.0343844    0.010393    -0.0399372
    13    0    4.95523    1.65054    1.65013    0.00104803    -0.0150305    0.00936317
    14    0    4.95136    1.64396    4.95078    -0.00408491    0.0420121    -0.00699238
    15    0    4.95567    4.9449    1.64913    -0.0167561    0.0261452    -0.011261
    16    0    4.9521    4.95305    4.94021    0.00188281    -0.0353868    0.0354182
 Energy
    -119.44194999999998
END_CFG

BEGIN_CFG
 Size
    16
 Supercell
    6.6    0    0
    0    6.6    0
    0    0    6.6
 AtomData:  id type    cartes_x    cartes_y    cartes_z    fx    fy    fz
    1    0    6.58792    0.005459    0.00065    0.0676695    -0.0255506    -0.00870638
    2    0    6.59464    0.010165    3.29999    0.0529346    -0.0828596    0.00606644
    3    0    6.59363    3.30271    0.014319    0.0259006    0.00782769    -0.090218
    4    0    6.58841    3.28837    3.29792    0.0524047    0.0845049    0.058654
    5    0    3.30176    0.009217    0.010086    -0.027391    -0.0678908    -0.0568432
    6    0    3.30036    6.59576    3.29865    -0.0267681    -0.0035432    0.03259
    7    0    3.29821    3.29594    6.59894    0.00689114    0.0554307    -0.0367744
    8    0    3.29001    3.29556    3.2893    0.0109267    0.0207211    0.0599364
    9    0    1.66402    1.65569    1.65406    -0.0604671    -0.0300221    0.0132725
    10    0    1.65453    1.6505    4.96315    -0.0227921    -0.00596538    -0.0470574
    11    0    1.65351    4.95166    1.63413    -0.014543    0.014864    0.078742
    12    0    1.65666    4.94862    4.95068    -0.0397588    0.00967943    -0.0420899
    13    0    4.95578    1.65037    1.65022    0.000753616    -0.0175025    0.00833195
    14    0    4.95174    1.64325    4.95011    -0.00660684    0.0457673    -0.00379867
    15    0    4.95679    4.94377    1.64891    -0.023013    0.0317463    -0.0125282
    16    0    4.95202    4.95296    4.93888    0.00385903    -0.0372073    0.0404228
 Energy
    -119.44075000000001
END_CFG

BEGIN_CFG
 Size
    16
 Supercell
    6.6    0    0
    0    6.6    0
    0    0    6.6
 AtomData:  id type    cartes_x    cartes_y    cartes_z    fx    fy    fz
    1    0    6.58684    0.006545    0.000864    0.0735192    -0.0291248    -0.0120589
    2    0    6.59422    0.010559    3.29952    0.0562078    -0.0903626    0.00936771
    3    0    6.59332    3.30371    0.015964    0.0267568    0.00629577    -0.101852
    4    0    6.58688    3.28636    3.29727    0.0602501    0.0951397    0.0672245
    5    0    3.30194    0.010277    0.01061    -0.0294185    -0.0767346    -0.0582914
    6    0    3.29987    6.59594    3.29923    -0.0265523    -0.00592821    0.0308001
    7    0    3.29802    3.29521    6.59945    0.00877312    0.0634132    -0.0417886
    8    0    3.28926    3.29565    3.28882    0.00976489    0.0217771    0.0642695
    9    0    1.66547    1.65653    1.65406    -0.0654559    -0.0358442    0.01878
    10    0    1.65474    1.65054    4.96517    -0.023817    -0.00547987    -0.0562016
    11    0    1.65313    4.95133    1.63237    -0.00960893    0.0200866    0.0864476
    12    0    1.65744    4.94872    4.95015    -0.0447236    0.00944946    -0.0439803
    13    0    4.95649    1.65027    1.65044    -0.000725628    -0.0203658    0.00763236
    14    0    4.9521    1.6429    4.94979    -0.0083963    0.0469704    -0.0019056
    15    0    4.95817    4.94286    1.64835    -0.0317319    0.0372657    -0.0109188
    16    0    4.95211    4.9526    4.93794    0.00515831    -0.0365578    0.0424759
 Energy
    -119.43946999999997
END_CFG

BEGIN_CFG
 Size
    16
 Supercell
    6.6    0    0
    0    6.6    0
    0    0    6.6
 AtomData:  id type    cartes_x    cartes_y    cartes_z    fx    fy    fz
    1    0    6.58453    0.009224    0.001679    0.086009    -0.0384735    -0.021454
    2    0    6.59251    0.011538    3.2987    0.0660317    -0.106645    0.0171515
    3    0    6.59354    3.30573    0.019349    0.027649    0.00450284    -0.125531
    4    0    6.58332    3.28244    3.29617    0.0805798    0.117275    0.0838491
    5    0    3.3023    0.012862    0.011584    -0.0344052    -0.0960322    -0.0608963
    6    0    3.29851    6.59504    3.30041    -0.0270011    -0.00260763    0.0265955
    7    0    3.29855    3.29342    0.000852    0.00920996    0.0805178    -0.0517883
    8    0    3.28854    3.2965    3.28827    0.00209051    0.0169654    0.0707551
    9    0    1.66831    1.65741    1.65442    -0.0721718    -0.0408825    0.0271232
    10    0    1.65415    1.6505    4.9685    -0.0202048    -0.00247901    -0.0707899
    11    0    1.65182    4.95138    1.62939    0.00417664    0.0239826    0.0965238
    12    0    1.6595    4.94911    4.94851    -0.0589011    0.0068266    -0.0421131
    13    0    4.95869    1.64965    1.65142    -0.00823831    -0.0224202    0.00142324
    14    0    4.95277    1.64176    4.94839    -0.0149809    0.0523028    0.00762342
    15    0    4.96142    4.94145    1.64694    -0.0526035    0.0443752    -0.0101499
    16    0    4.95153    4.95198    4.93542    0.01276    -0.0372089    0.0516779
 Energy
    -119.43634000000002
END_CFG

BEGIN_CFG
 Size
    16
 Supercell
    6.6    0    0
    0    6.6    0
    0    0    6.6
 AtomData:  id type    cartes_x    cartes_y    cartes_z    fx    fy    fz
    1    0    6.5831    0.010987    0.00186    0.0934949    -0.044012    -0.0239608
    2    0    6.59189    0.012266    3.29855    0.0693573    -0.11556    0.0189014
    3    0    6.59353    3.30693    0.021271    0.0279621    0.00323018    -0.137814
    4    0    6.58152    3.2805    3.29558    0.0910788    0.128712    0.0923838
    5    0    3.30255    0.014003    0.01178    -0.0375174    -0.106156    -0.0608916
    6    0    3.29752    6.5941    3.30102    -0.0254485    0.000442509    0.0239098
    7    0    3.29875    3.29216    0.001195    0.0100315    0.0907064    -0.0542132
    8    0    3.28815    3.29685    3.28825    -0.00185057    0.0144151    0.0717348
    9    0    1.67009    1.65783    1.65438    -0.0776825    -0.0434456    0.0315356
    10    0    1.65384    1.65033    4.96995    -0.0184086    0.000228351    -0.0774522
    11    0    1.65121    4.95138    1.62776    0.0114138    0.0260455    0.1022
    12    0    1.66051    4.94941    4.948    -0.0656    0.00421573    -0.0426299
    13    0    4.95947    1.64926    1.65232    -0.0101467    -0.0219871    -0.0032248
    14    0    4.95316    1.64125    4.94762    -0.0185525    0.0544596    0.0131788
    15    0    4.96324    4.94123    1.64643    -0.0639184    0.0455789    -0.0109833
    16    0    4.95147    4.95151    4.93404    0.0157867    -0.0368727    0.0573248
 Energy
    -119.43444
END_CFG

BEGIN_CFG
 Size
    16
 Supercell
    6.6    0    0
    0    6.6    0
    0    0    6.6
 AtomData:  id type    cartes_x    cartes_y    cartes_z    fx    fy    fz
    1    0    6.58155    0.012468    0.001884    0.101805    -0.0474348    -0.0260283
    2    0    6.59164    0.012692    3.29836    0.0698468    -0.122825    0.0204791
    3    0    6.59389    3.30831    0.023364    0.0278495    6.33766e-05    -0.151502
    4    0    6.57962    3.27876    3.29474    0.101721    0.138708    0.102684
    5    0    3.30292    0.015237    0.011521    -0.0414202    -0.116758    -0.0578681
    6    0    3.29621    6.59314    3.30183    -0.0212822    0.00407133    0.0188607
    7    0    3.29936    3.29065    0.001668    0.0095514    0.101808    -0.0567248
    8    0    3.2876    3.29739    3.28832    -0.00549427    0.0110753    0.0724957
    9    0    1.67167    1.65847    1.65455    -0.0820916    -0.0472359    0.0336595
    10    0    1.65365    1.64996    4.97103    -0.0185456    0.00406262    -0.0814453
    11    0    1.65034    4.95147    1.62601    0.0198656    0.0284487    0.107513
    12    0    1.66162    4.94964    4.94739    -0.0724487    0.00110026    -0.0421593
    13    0    4.96035    1.64886    1.65351    -0.0129198    -0.0228751    -0.00887416
    14    0    4.95318    1.64111    4.94688    -0.0194861    0.0552006    0.0188554
    15    0    4.96479    4.94068    1.64603    -0.0752096    0.0489571    -0.0119667
    16    0    4.95161    4.95116    4.93291    0.018258    -0.0363662    0.0620205
 Energy
    -119.43244
END_CFG

BEGIN_CFG
 Size
    16
 Supercell
    6.6    0    0
    0    6.6    0
    0    0    6.6
 AtomData:  id type    cartes_x    cartes_y    cartes_z    fx    fy    fz
    1    0    6.57689    0.016415    0.001071    0.125494    -0.0507461    -0.0253328
    2    0    6.59153    0.013608    3.29814    0.0713565    -0.142855    0.019816
    3    0    6.59435    3.31273    0.02933    0.0257107    -0.0160036    -0.188295
    4    0    6.57389    3.27333    3.29318    0.131271    0.168436    0.127701
    5    0    3.30331    0.017757    0.00949    -0.0497324    -0.138137    -0.0437224
    6    0    3.29329    6.5892    3.30376    -0.0116157    0.0241954    0.00235032
    7    0    3.29972    3.28697    0.004455    0.0146165    0.125724    -0.0721829
    8    0    3.28544    3.30102    3.28834    -0.012184    -0.0103604    0.0798834
    9    0    1.6763    1.6604    1.65611    -0.0959476    -0.0609395    0.0358608
    10    0    1.65365    1.6488    4.97414    -0.0214156    0.0179637    -0.0912882
    11    0    1.64855    4.951    1.61988    0.0363071    0.0395903    0.128828
    12    0    1.66518    4.95097    4.94588    -0.0903178    -0.0122079    -0.0452973
    13    0    4.96267    1.64764    1.65773    -0.0204412    -0.0239186    -0.0301818
    14    0    4.95266    1.63974    4.94425    -0.0201158    0.0649667    0.0401598
    15    0    4.96876    4.93968    1.64385    -0.101041    0.0556281    -0.00853919
    16    0    4.95381    4.95075    4.93038    0.0180561    -0.0413358    0.0702401
 Energy
    -119.42558
END_CFG

BEGIN_CFG
 Size
    16
 Supercell
    6.6    0    0
    0    6.6    0
    0    0    6.6
 AtomData:  id type    cartes_x    cartes_y    cartes_z    fx    fy    fz
    1    0    6.57845    0.015087    0.001188    0.117893    -0.0496935    -0.0254299
    2    0    6.59162    0.013485    3.29799    0.0709752    -0.13699    0.0206205
    3    0    6.59425    3.31133    0.027606    0.0258194    -0.0108245    -0.177389
    4    0    6.57587    3.27512    3.29377    0.120951    0.159107    0.119826
    5    0    3.30327    0.016954    0.010431    -0.0475168    -0.131363    -0.0501342
    6    0    3.29431    6.59045    3.303    -0.0153561    0.0175189    0.00916659
    7    0    3.29961    3.28827    0.003335    0.0134124    0.117841    -0.065542
    8    0    3.28614    3.29965    3.28865    -0.00966384    -0.0028174    0.0754926
    9    0    1.67496    1.65964    1.65572    -0.0921722    -0.0561023    0.0350961
    10    0    1.65344    1.6491    4.9734    -0.0193079    0.0134227    -0.0886945
    11    0    1.64892    4.95093    1.62184    0.0320067    0.0363246    0.121714
    12    0    1.664    4.95048    4.94618    -0.0847662    -0.00751231    -0.0434803
    13    0    4.96186    1.64793    1.65631    -0.017496    -0.0219848    -0.0230843
    14    0    4.95288    1.6402    4.94514    -0.0205197    0.0622386    0.0331078
    15    0    4.96745    4.94025    1.64456    -0.0930575    0.0516059    -0.0103389
    16    0    4.95295    4.95112    4.93088    0.0187984    -0.0407719    0.06907
 Energy
    -119.42798000000002
END_CFG

BEGIN_CFG
 Size
    16
 Supercell
    6.6    0    0
    0    6.6    0
    0    0    6.6
 AtomData:  id type    cartes_x    cartes_y    cartes_z    fx    fy    fz
    1    0    6.57346    0.021382    0.000162    0.143664    -0.0548067    -0.0225301
    2    0    6.58901    0.013068    3.29837    0.0777937    -0.158261    0.0177674
    3    0    6.5967    3.31793    0.036211    0.0137239    -0.0364498    -0.23779
    4    0    6.56501    3.2675    3.29016    0.178308    0.197236    0.168184
    5    0    3.30471    0.020284    0.005952    -0.0552145    -0.159472    -0.0196416
    6    0    3.28736    6.58543    3.30484    0.00689094    0.0478162    -0.0173843
    7    0    3.29947    3.28269    0.006303    0.0292844    0.150511    -0.0850759
    8    0    3.28262    3.30718    3.28748    -0.0261271    -0.0426566    0.0902688
    9    0    1.68252    1.66518    1.65717    -0.11392    -0.0890779    0.0453053
    10    0    1.65566    1.64691    4.97853    -0.0390963    0.036678    -0.111638
    11    0    1.64691    4.95087    1.61399    0.0532671    0.0591399    0.148808
    12    0    1.67044    4.95303    4.94497    -0.123227    -0.0292679    -0.0504879
    13    0    4.9668    1.64751    1.66568    -0.033243    -0.042155    -0.074845
    14    0    4.95097    1.63736    4.93989    -0.00982983    0.0748146    0.0787497
    15    0    4.97387    4.93487    1.64147    -0.132388    0.0863539    -0.00543412